    5    5    1    1
  0.1172182E+02  0.3884380E-09  0.3884380E-09  0.3884380E-09  0.5000000E-15
  1.000000000000000E-004
  CAR 
 unknown system                          
     36      4     22
 
  0.0000000E+00  0.0000000E+00  0.0000000E+00  0.3703704E-01
    1      -29.132594
    2      -29.132594
    3      -29.132594
    4      -16.605355
    5      -16.605355
    6      -16.605355
    7      -13.854755
    8      -12.756848
    9      -12.756848
   10        0.660860
   11        0.660860
   12        0.660860
   13        2.594586
   14        2.594586
   15        2.594586
   16        3.305741
   17        3.305741
   18        3.305741
   19        5.504133
   20        5.504133
   21        5.504133
   22        7.965349
 
  0.3333333E+00  0.0000000E+00  0.0000000E+00  0.2222222E+00
    1      -29.188161
    2      -29.130308
    3      -29.130308
    4      -16.778395
    5      -16.597541
    6      -16.597541
    7      -13.382923
    8      -12.731329
    9      -12.522786
   10       -0.321769
   11        0.762037
   12        0.762037
   13        1.404653
   14        1.569141
   15        1.569141
   16        1.987358
   17        3.058801
   18        3.058801
   19        5.632476
   20        7.036652
   21        7.036652
   22        7.995895
 
  0.3333333E+00  0.3333333E+00  0.0000000E+00  0.4444444E+00
    1      -29.186288
    2      -29.186224
    3      -29.128115
    4      -16.733179
    5      -16.700474
    6      -16.588399
    7      -13.136963
    8      -12.515301
    9      -12.398464
   10       -0.639121
   11       -0.175860
   12       -0.150964
   13        0.791578
   14        1.200367
   15        1.791569
   16        1.957054
   17        2.331361
   18        3.270451
   19        7.006243
   20        7.109804
   21        7.403644
   22        8.830480
 
  0.3333333E+00  0.3333333E+00  0.3333333E+00  0.2962963E+00
    1      -29.184108
    2      -29.183581
    3      -29.183581
    4      -16.697661
    5      -16.668747
    6      -16.668747
    7      -12.691279
    8      -12.441468
    9      -12.441468
   10       -0.641248
   11       -0.221009
   12       -0.221009
   13       -0.018474
   14       -0.007686
   15       -0.007686
   16        3.113560
   17        3.113560
   18        3.432871
   19        7.517006
   20        7.576114
   21        7.576114
   22        9.849888
