    5    5    1    1
  0.1170210E+02  0.3882200E-09  0.3882200E-09  0.3882200E-09  0.5000000E-15
  1.000000000000000E-004
  CAR 
 unknown system                          
     36      4     22
 
  0.0000000E+00  0.0000000E+00  0.0000000E+00  0.3703704E-01
    1      -29.113199
    2      -29.113199
    3      -29.113199
    4      -16.586087
    5      -16.586087
    6      -16.586087
    7      -13.848962
    8      -12.749095
    9      -12.749095
   10        0.671044
   11        0.671044
   12        0.671044
   13        2.604259
   14        2.604259
   15        2.604259
   16        3.319045
   17        3.319045
   18        3.319045
   19        5.520809
   20        5.520809
   21        5.520809
   22        7.990024
 
  0.3333333E+00  0.0000000E+00  0.0000000E+00  0.2222222E+00
    1      -29.169204
    2      -29.110878
    3      -29.110878
    4      -16.760914
    5      -16.578215
    6      -16.578215
    7      -13.372754
    8      -12.722593
    9      -12.512308
   10       -0.312906
   11        0.772166
   12        0.772166
   13        1.417226
   14        1.579380
   15        1.579380
   16        1.996528
   17        3.075318
   18        3.075318
   19        5.649876
   20        7.058535
   21        7.058535
   22        8.021877
 
  0.3333333E+00  0.3333333E+00  0.0000000E+00  0.4444444E+00
    1      -29.167343
    2      -29.167276
    3      -29.108677
    4      -16.715160
    5      -16.682019
    6      -16.568999
    7      -13.128823
    8      -12.505253
    9      -12.387617
   10       -0.633267
   11       -0.167536
   12       -0.143011
   13        0.799703
   14        1.207531
   15        1.800761
   16        1.966725
   17        2.344427
   18        3.281759
   19        7.026986
   20        7.130908
   21        7.424973
   22        8.858368
 
  0.3333333E+00  0.3333333E+00  0.3333333E+00  0.2962963E+00
    1      -29.165142
    2      -29.164608
    3      -29.164608
    4      -16.679223
    5      -16.649974
    6      -16.649974
    7      -12.681022
    8      -12.431117
    9      -12.431117
   10       -0.634724
   11       -0.214506
   12       -0.214506
   13       -0.008915
   14       -0.000384
   15       -0.000384
   16        3.124688
   17        3.124688
   18        3.444470
   19        7.539376
   20        7.598217
   21        7.598217
   22        9.870354
