    5    5    1    1
  0.1172182E+02  0.3884380E-09  0.3884380E-09  0.3884380E-09  0.5000000E-15
  1.000000000000000E-004
  CAR 
 unknown system                          
     36     20     22
 
  0.0000000E+00  0.0000000E+00  0.0000000E+00  0.2915452E-02
    1      -29.041113
    2      -29.041113
    3      -29.041113
    4      -16.611564
    5      -16.611564
    6      -16.611564
    7      -13.874628
    8      -12.778518
    9      -12.778518
   10        0.647007
   11        0.647007
   12        0.647007
   13        2.572867
   14        2.572867
   15        2.572867
   16        3.281989
   17        3.281989
   18        3.281989
   19        5.567949
   20        5.567949
   21        5.567949
   22        8.037145
 
  0.1428571E+00  0.0000000E+00  0.0000000E+00  0.1749271E-01
    1      -29.055410
    2      -29.040533
    3      -29.040533
    4      -16.657579
    5      -16.609608
    6      -16.609608
    7      -13.755506
    8      -12.773577
    9      -12.722496
   10        0.417369
   11        0.657723
   12        0.657723
   13        2.300974
   14        2.300974
   15        2.399642
   16        2.649271
   17        3.177795
   18        3.177795
   19        5.600003
   20        6.017586
   21        6.017586
   22        8.054923
 
  0.2857143E+00  0.0000000E+00  0.0000000E+00  0.1749271E-01
    1      -29.087277
    2      -29.039227
    3      -29.039227
    4      -16.754807
    5      -16.605204
    6      -16.605204
    7      -13.488970
    8      -12.758251
    9      -12.589552
   10       -0.129525
   11        0.713050
   12        0.713050
   13        1.643674
   14        1.739414
   15        1.739414
   16        2.067997
   17        3.063061
   18        3.063061
   19        5.674599
   20        6.846498
   21        6.846498
   22        8.069396
 
  0.4285714E+00  0.0000000E+00  0.0000000E+00  0.1749271E-01
    1      -29.112569
    2      -29.038162
    3      -29.038162
    4      -16.827647
    5      -16.601672
    6      -16.601672
    7      -13.275803
    8      -12.745180
    9      -12.471732
   10       -0.621467
   11        0.852878
   12        0.852878
   13        1.075433
   14        1.267302
   15        1.267302
   16        1.829508
   17        3.007375
   18        3.007375
   19        5.737506
   20        7.438569
   21        7.438569
   22        8.075465
 
  0.1428571E+00  0.1428571E+00  0.0000000E+00  0.3498542E-01
    1      -29.054881
    2      -29.054822
    3      -29.039958
    4      -16.666512
    5      -16.636672
    6      -16.607566
    7      -13.645562
    8      -12.743586
    9      -12.691729
   10        0.281836
   11        0.557356
   12        0.667433
   13        1.745629
   14        2.110668
   15        2.538689
   16        2.548236
   17        2.815228
   18        3.009054
   19        5.982803
   20        6.095080
   21        6.266438
   22        8.342112
 
  0.2857143E+00  0.1428571E+00  0.0000000E+00  0.6997085E-01
    1      -29.086772
    2      -29.053604
    3      -29.038663
    4      -16.744162
    5      -16.635680
    6      -16.602974
    7      -13.402586
    8      -12.719822
    9      -12.565517
   10       -0.176492
   11        0.431068
   12        0.715499
   13        1.037631
   14        1.645763
   15        1.846210
   16        2.530281
   17        2.671297
   18        2.823260
   19        6.086057
   20        6.859739
   21        6.900231
   22        8.451861
 
  0.4285714E+00  0.1428571E+00  0.0000000E+00  0.6997085E-01
    1      -29.112115
    2      -29.052598
    3      -29.037620
    4      -16.809350
    5      -16.628322
    6      -16.599289
    7      -13.214413
    8      -12.704324
    9      -12.443015
   10       -0.627546
   11        0.209098
   12        0.723528
   13        0.847076
   14        1.210594
   15        1.499699
   16        2.462059
   17        2.556953
   18        2.742958
   19        6.136004
   20        7.438593
   21        7.440957
   22        8.471210
 
  0.2857143E+00  0.2857143E+00  0.0000000E+00  0.3498542E-01
    1      -29.085711
    2      -29.085616
    3      -29.037399
    4      -16.732594
    5      -16.690083
    6      -16.597958
    7      -13.234039
    8      -12.622113
    9      -12.487530
   10       -0.424457
   11        0.066710
   12        0.244025
   13        0.743331
   14        1.383697
   15        1.842965
   16        2.044556
   17        2.481960
   18        3.067960
   19        6.807124
   20        6.945006
   21        7.202706
   22        8.791909
 
  0.4285714E+00  0.2857143E+00  0.0000000E+00  0.6997085E-01
    1      -29.111113
    2      -29.084771
    3      -29.036397
    4      -16.768517
    5      -16.686894
    6      -16.593925
    7      -13.135428
    8      -12.539885
    9      -12.377692
   10       -0.692227
   11       -0.502096
   12        0.046623
   13        0.840377
   14        1.077702
   15        1.666729
   16        2.007274
   17        2.316205
   18        3.202891
   19        6.894830
   20        7.442105
   21        7.584897
   22        8.889318
 
  0.4285714E+00  0.4285714E+00  0.0000000E+00  0.3498542E-01
    1      -29.110293
    2      -29.110273
    3      -29.035396
    4      -16.738335
    5      -16.730259
    6      -16.589625
    7      -13.118510
    8      -12.349499
    9      -12.319356
   10       -0.997945
   11       -0.734334
   12       -0.479080
   13        0.860003
   14        0.942935
   15        1.778517
   16        1.823226
   17        2.064171
   18        3.548632
   19        7.433097
   20        7.456996
   21        7.833205
   22        9.016176
 
  0.1428571E+00  0.1428571E+00  0.1428571E+00  0.2332362E-01
    1      -29.054316
    2      -29.054283
    3      -29.054283
    4      -16.672302
    5      -16.632974
    6      -16.632974
    7      -13.541174
    8      -12.689398
    9      -12.689398
   10        0.153428
   11        0.555322
   12        0.555322
   13        1.640280
   14        1.640280
   15        2.165462
   16        2.767301
   17        2.787760
   18        2.787760
   19        6.222119
   20        6.330141
   21        6.330141
   22        8.945242
 
  0.2857143E+00  0.1428571E+00  0.1428571E+00  0.6997085E-01
    1      -29.086241
    2      -29.053149
    3      -29.052906
    4      -16.734328
    5      -16.638099
    6      -16.624645
    7      -13.309649
    8      -12.683423
    9      -12.553362
   10       -0.227804
   11        0.352118
   12        0.530059
   13        0.967711
   14        1.111775
   15        1.928079
   16        2.494769
   17        2.720341
   18        2.754604
   19        6.350394
   20        6.920992
   21        6.936616
   22        8.983714
 
  0.4285714E+00  0.1428571E+00  0.1428571E+00  0.6997085E-01
    1      -29.111609
    2      -29.052222
    3      -29.051812
    4      -16.792796
    5      -16.630912
    6      -16.617941
    7      -13.133199
    8      -12.679664
    9      -12.423073
   10       -0.632717
   11        0.089300
   12        0.458674
   13        0.575921
   14        0.872437
   15        1.996738
   16        2.232630
   17        2.618831
   18        2.677880
   19        6.406662
   20        7.446497
   21        7.473923
   22        8.976184
 
  0.2857143E+00  0.2857143E+00  0.1428571E+00  0.6997085E-01
    1      -29.085077
    2      -29.085041
    3      -29.051737
    4      -16.723472
    5      -16.683089
    6      -16.621308
    7      -13.125582
    8      -12.597476
    9      -12.495237
   10       -0.443758
   11        0.062054
   12        0.263223
   13        0.443877
   14        0.853297
   15        1.474642
   16        2.525747
   17        2.542957
   18        3.098811
   19        6.925689
   20        7.034899
   21        7.241350
   22        9.451280
 
  0.4285714E+00  0.2857143E+00  0.1428571E+00  0.1399417E+00
    1      -29.110488
    2      -29.084107
    3      -29.050707
    4      -16.755870
    5      -16.680784
    6      -16.614746
    7      -13.018003
    8      -12.545735
    9      -12.377393
   10       -0.681372
   11       -0.464781
   12        0.031528
   13        0.358080
   14        0.619857
   15        1.480331
   16        2.376100
   17        2.525326
   18        3.223008
   19        7.022185
   20        7.498914
   21        7.622468
   22        9.516352
 
  0.4285714E+00  0.4285714E+00  0.1428571E+00  0.6997085E-01
    1      -29.109587
    2      -29.109584
    3      -29.049654
    4      -16.728585
    5      -16.721148
    6      -16.608618
    7      -12.990523
    8      -12.362096
    9      -12.334474
   10       -0.921330
   11       -0.722762
   12       -0.475997
   13        0.356994
   14        0.411919
   15        1.393677
   16        2.411296
   17        2.423988
   18        3.564366
   19        7.516900
   20        7.540028
   21        7.875230
   22        9.551954
 
  0.2857143E+00  0.2857143E+00  0.2857143E+00  0.2332362E-01
    1      -29.084059
    2      -29.083535
    3      -29.083535
    4      -16.708982
    5      -16.667250
    6      -16.667250
    7      -12.900952
    8      -12.512188
    9      -12.512188
   10       -0.536573
   11       -0.005211
   12       -0.005211
   13        0.329308
   14        0.329308
   15        0.450918
   16        2.862089
   17        2.862089
   18        3.241924
   19        7.279010
   20        7.347018
   21        7.347018
   22        9.932482
 
  0.4285714E+00  0.2857143E+00  0.2857143E+00  0.6997085E-01
    1      -29.109086
    2      -29.082932
    3      -29.082312
    4      -16.727514
    5      -16.673433
    6      -16.654424
    7      -12.773762
    8      -12.525094
    9      -12.375994
   10       -0.685375
   11       -0.430021
   12       -0.199783
   13       -0.116723
   14        0.202493
   15        0.458061
   16        2.934115
   17        3.015800
   18        3.349618
   19        7.390340
   20        7.682642
   21        7.725965
   22        9.968839
 
  0.4285714E+00  0.4285714E+00  0.2857143E+00  0.6997085E-01
    1      -29.108019
    2      -29.107951
    3      -29.081443
    4      -16.706574
    5      -16.700454
    6      -16.650913
    7      -12.688157
    8      -12.390028
    9      -12.367890
   10       -0.776035
   11       -0.674497
   12       -0.470509
   13       -0.231705
   14       -0.190806
   15        0.256449
   16        3.144519
   17        3.170304
   18        3.603756
   19        7.760833
   20        7.778015
   21        7.972286
   22        9.669072
 
  0.4285714E+00  0.4285714E+00  0.4285714E+00  0.2332362E-01
    1      -29.106838
    2      -29.106656
    3      -29.106656
    4      -16.689604
    5      -16.683614
    6      -16.683614
    7      -12.445640
    8      -12.395507
    9      -12.395507
   10       -0.812431
   11       -0.587431
   12       -0.536864
   13       -0.536864
   14       -0.449027
   15       -0.449027
   16        3.571961
   17        3.571961
   18        3.657931
   19        8.032336
   20        8.057666
   21        8.057666
   22        9.562240
