    5    5    1    1
  0.1170210E+02  0.3882200E-09  0.3882200E-09  0.3882200E-09  0.5000000E-15
  1.000000000000000E-004
  CAR 
 unknown system                          
     36     20     22
 
  0.0000000E+00  0.0000000E+00  0.0000000E+00  0.2915452E-02
    1      -29.021861
    2      -29.021861
    3      -29.021861
    4      -16.592552
    5      -16.592552
    6      -16.592552
    7      -13.868226
    8      -12.770088
    9      -12.770088
   10        0.657714
   11        0.657714
   12        0.657714
   13        2.583243
   14        2.583243
   15        2.583243
   16        3.296021
   17        3.296021
   18        3.296021
   19        5.584489
   20        5.584489
   21        5.584489
   22        8.061567
 
  0.1428571E+00  0.0000000E+00  0.0000000E+00  0.1749271E-01
    1      -29.036276
    2      -29.021275
    3      -29.021275
    4      -16.639080
    5      -16.590581
    6      -16.590581
    7      -13.748426
    8      -12.765097
    9      -12.713556
   10        0.427742
   11        0.668256
   12        0.668256
   13        2.310887
   14        2.310887
   15        2.409617
   16        2.662098
   17        3.191604
   18        3.191604
   19        5.616692
   20        6.035319
   21        6.035319
   22        8.080208
 
  0.2857143E+00  0.0000000E+00  0.0000000E+00  0.1749271E-01
    1      -29.068400
    2      -29.019953
    3      -29.019953
    4      -16.737282
    5      -16.586145
    6      -16.586145
    7      -13.479329
    8      -12.749685
    9      -12.579354
   10       -0.120246
   11        0.723320
   12        0.723320
   13        1.654364
   14        1.748962
   15        1.748962
   16        2.077024
   17        3.080128
   18        3.080128
   19        5.691723
   20        6.867041
   21        6.867041
   22        8.095152
 
  0.4285714E+00  0.0000000E+00  0.0000000E+00  0.1749271E-01
    1      -29.093905
    2      -29.018882
    3      -29.018882
    4      -16.810842
    5      -16.582587
    6      -16.582587
    7      -13.266278
    8      -12.736548
    9      -12.460486
   10       -0.613473
   11        0.862822
   12        0.862822
   13        1.084971
   14        1.275866
   15        1.275866
   16        1.837927
   17        3.020752
   18        3.020752
   19        5.754872
   20        7.460456
   21        7.460456
   22        8.101332
 
  0.1428571E+00  0.1428571E+00  0.0000000E+00  0.3498542E-01
    1      -29.035743
    2      -29.035683
    3      -29.020695
    4      -16.648147
    5      -16.617885
    6      -16.588524
    7      -13.637931
    8      -12.734855
    9      -12.682520
   10        0.291512
   11        0.568001
   12        0.677757
   13        1.755037
   14        2.120084
   15        2.551157
   16        2.559038
   17        2.827476
   18        3.022722
   19        6.000453
   20        6.113120
   21        6.284766
   22        8.367963
 
  0.2857143E+00  0.1428571E+00  0.0000000E+00  0.6997085E-01
    1      -29.067886
    2      -29.034447
    3      -29.019379
    4      -16.726518
    5      -16.616894
    6      -16.583898
    7      -13.393375
    8      -12.710421
    9      -12.554589
   10       -0.167123
   11        0.440841
   12        0.726118
   13        1.048139
   14        1.655331
   15        1.857336
   16        2.542360
   17        2.683662
   18        2.837926
   19        6.104459
   20        6.880160
   21        6.920523
   22        8.478466
 
  0.4285714E+00  0.1428571E+00  0.0000000E+00  0.6997085E-01
    1      -29.093448
    2      -29.033439
    3      -29.018334
    4      -16.792315
    5      -16.609463
    6      -16.580184
    7      -13.204912
    8      -12.695304
    9      -12.431549
   10       -0.619567
   11        0.216138
   12        0.733835
   13        0.856630
   14        1.218914
   15        1.508986
   16        2.472356
   17        2.568935
   18        2.756254
   19        6.154379
   20        7.460501
   21        7.462615
   22        8.497925
 
  0.2857143E+00  0.2857143E+00  0.0000000E+00  0.3498542E-01
    1      -29.066828
    2      -29.066731
    3      -29.018112
    4      -16.714811
    5      -16.671740
    6      -16.578842
    7      -13.225039
    8      -12.612236
    9      -12.476586
   10       -0.417185
   11        0.075831
   12        0.252932
   13        0.752495
   14        1.391696
   15        1.852973
   16        2.055056
   17        2.495486
   18        3.079644
   19        6.827137
   20        6.965530
   21        7.223306
   22        8.819507
 
  0.4285714E+00  0.2857143E+00  0.0000000E+00  0.6997085E-01
    1      -29.092422
    2      -29.065873
    3      -29.017095
    4      -16.750964
    5      -16.668514
    6      -16.574776
    7      -13.126328
    8      -12.528572
    9      -12.365363
   10       -0.685011
   11       -0.495042
   12        0.056389
   13        0.849562
   14        1.086410
   15        1.677130
   16        2.017848
   17        2.330290
   18        3.216137
   19        6.915424
   20        7.464422
   21        7.606638
   22        8.917248
 
  0.4285714E+00  0.4285714E+00  0.0000000E+00  0.3498542E-01
    1      -29.091611
    2      -29.091576
    3      -29.016087
    4      -16.720398
    5      -16.712222
    6      -16.570441
    7      -13.110219
    8      -12.336503
    9      -12.306970
   10       -0.993450
   11       -0.725415
   12       -0.471340
   13        0.868758
   14        0.950120
   15        1.788731
   16        1.833969
   17        2.078729
   18        3.562761
   19        7.455388
   20        7.479046
   21        7.855476
   22        9.044403
 
  0.1428571E+00  0.1428571E+00  0.1428571E+00  0.2332362E-01
    1      -29.035171
    2      -29.035139
    3      -29.035139
    4      -16.654014
    5      -16.614151
    6      -16.614151
    7      -13.533059
    8      -12.680196
    9      -12.680196
   10        0.162482
   11        0.565663
   12        0.565663
   13        1.649278
   14        1.649278
   15        2.178570
   16        2.778169
   17        2.800004
   18        2.800004
   19        6.240572
   20        6.348643
   21        6.348643
   22        8.968881
 
  0.2857143E+00  0.1428571E+00  0.1428571E+00  0.6997085E-01
    1      -29.067355
    2      -29.033990
    3      -29.033748
    4      -16.716576
    5      -16.619340
    6      -16.605744
    7      -13.300209
    8      -12.673611
    9      -12.542684
   10       -0.218981
   11        0.361982
   12        0.540354
   13        0.977416
   14        1.121376
   15        1.940423
   16        2.506646
   17        2.732420
   18        2.765977
   19        6.369435
   20        6.941670
   21        6.956899
   22        9.011160
 
  0.4285714E+00  0.1428571E+00  0.1428571E+00  0.6997085E-01
    1      -29.092932
    2      -29.033058
    3      -29.032642
    4      -16.775545
    5      -16.612084
    6      -16.598977
    7      -13.122996
    8      -12.670494
    9      -12.411331
   10       -0.624661
   11        0.096706
   12        0.465948
   13        0.585212
   14        0.883004
   15        2.008812
   16        2.243874
   17        2.629589
   18        2.690707
   19        6.425798
   20        7.468388
   21        7.495875
   22        9.003979
 
  0.2857143E+00  0.2857143E+00  0.1428571E+00  0.6997085E-01
    1      -29.066188
    2      -29.066152
    3      -29.032569
    4      -16.705580
    5      -16.664678
    6      -16.602381
    7      -13.116082
    8      -12.587474
    9      -12.484387
   10       -0.436523
   11        0.071031
   12        0.271525
   13        0.452898
   14        0.860966
   15        1.486496
   16        2.536757
   17        2.554218
   18        3.110482
   19        6.946141
   20        7.055500
   21        7.262150
   22        9.479602
 
  0.4285714E+00  0.2857143E+00  0.1428571E+00  0.1399417E+00
    1      -29.091807
    2      -29.065209
    3      -29.031529
    4      -16.738179
    5      -16.662351
    6      -16.595759
    7      -13.008621
    8      -12.535228
    9      -12.365461
   10       -0.674017
   11       -0.458462
   12        0.040619
   13        0.365205
   14        0.628102
   15        1.492476
   16        2.386790
   17        2.536337
   18        3.234966
   19        7.042958
   20        7.520964
   21        7.644357
   22        9.544669
 
  0.4285714E+00  0.4285714E+00  0.1428571E+00  0.6997085E-01
    1      -29.090889
    2      -29.090887
    3      -29.030466
    4      -16.710554
    5      -16.703023
    6      -16.589577
    7      -12.981595
    8      -12.349516
    9      -12.322013
   10       -0.916294
   11       -0.713834
   12       -0.468567
   13        0.364877
   14        0.418801
   15        1.407243
   16        2.422532
   17        2.435343
   18        3.577751
   19        7.539634
   20        7.562363
   21        7.897794
   22        9.578290
 
  0.2857143E+00  0.2857143E+00  0.2857143E+00  0.2332362E-01
    1      -29.065154
    2      -29.064624
    3      -29.064624
    4      -16.690900
    5      -16.648680
    6      -16.648680
    7      -12.890330
    8      -12.500717
    9      -12.500717
   10       -0.529399
   11        0.003210
   12        0.003210
   13        0.338403
   14        0.338403
   15        0.462420
   16        2.874349
   17        2.874349
   18        3.256651
   19        7.300663
   20        7.368672
   21        7.368672
   22        9.908608
 
  0.4285714E+00  0.2857143E+00  0.2857143E+00  0.6997085E-01
    1      -29.090393
    2      -29.064024
    3      -29.063396
    4      -16.709504
    5      -16.654932
    6      -16.635729
    7      -12.763220
    8      -12.514645
    9      -12.364119
   10       -0.677803
   11       -0.423531
   12       -0.193647
   13       -0.109000
   14        0.211706
   15        0.467743
   16        2.945574
   17        3.027623
   18        3.361800
   19        7.412088
   20        7.705122
   21        7.748275
   22       10.040251
 
  0.4285714E+00  0.4285714E+00  0.2857143E+00  0.6997085E-01
    1      -29.089315
    2      -29.089247
    3      -29.062519
    4      -16.688326
    5      -16.682134
    6      -16.632189
    7      -12.677920
    8      -12.378272
    9      -12.356020
   10       -0.769010
   11       -0.667043
   12       -0.463331
   13       -0.225392
   14       -0.184577
   15        0.266501
   16        3.156424
   17        3.182289
   18        3.616598
   19        7.783639
   20        7.800815
   21        7.995371
   22        9.689303
 
  0.4285714E+00  0.4285714E+00  0.4285714E+00  0.2332362E-01
    1      -29.088110
    2      -29.087932
    3      -29.087932
    4      -16.671184
    5      -16.665133
    6      -16.665133
    7      -12.433949
    8      -12.383502
    9      -12.383502
   10       -0.802502
   11       -0.581190
   12       -0.530799
   13       -0.530799
   14       -0.441336
   15       -0.441336
   16        3.585803
   17        3.585803
   18        3.671598
   19        8.055891
   20        8.081473
   21        8.081473
   22        9.581893
