 vasp.5.3.5 31Mar14 (build Dec 17 2015 22:09:37) complex                        
  
 executed on             LinuxIFC date 2017.03.19  05:01:27
 running on   22 total cores
 distrk:  each k-point on   22 cores,    1 groups
 distr:  one band on NCORES_PER_BAND=   1 cores,   22 groups


--------------------------------------------------------------------------------------------------------


 INCAR:
 POTCAR:    PAW_PBE Ti_pv 07Sep2000               
 POTCAR:    PAW_PBE Ca_pv 06Sep2000               
 POTCAR:    PAW_PBE O 08Apr2002                   

 ----------------------------------------------------------------------------- 
|                                                                             |
|           W    W    AA    RRRRR   N    N  II  N    N   GGGG   !!!           |
|           W    W   A  A   R    R  NN   N  II  NN   N  G    G  !!!           |
|           W    W  A    A  R    R  N N  N  II  N N  N  G       !!!           |
|           W WW W  AAAAAA  RRRRR   N  N N  II  N  N N  G  GGG   !            |
|           WW  WW  A    A  R   R   N   NN  II  N   NN  G    G                |
|           W    W  A    A  R    R  N    N  II  N    N   GGGG   !!!           |
|                                                                             |
|      For optimal performance we recommend to set                            |
|        NCORE= 4 - approx SQRT( number of cores)                             |
|      NCORE specifies how many cores store one orbital (NPAR=cpu/NCORE).     |
|      This setting can  greatly improve the performance of VASP for DFT.     |
|      The default, NPAR=number of cores might be grossly inefficient         |
|      on modern multi-core architectures or massively parallel machines.     |
|      Do your own testing !!!!                                               |
|      Unfortunately you need to use the default for GW and RPA calculations. |
|      (for HF NCORE is supported but not extensively tested yet)             |
|                                                                             |
 ----------------------------------------------------------------------------- 

 POTCAR:    PAW_PBE Ti_pv 07Sep2000               
   VRHFIN =Ti: d3 s1                                                            
   LEXCH  = PE                                                                  
   EATOM  =  1042.5995 eV,   76.6289 Ry                                         
                                                                                
   TITEL  = PAW_PBE Ti_pv 07Sep2000                                             
   LULTRA =        F    use ultrasoft PP ?                                      
   IUNSCR =        1    unscreen: 0-lin 1-nonlin 2-no                           
   RPACOR =    2.200    partial core radius                                     
   POMASS =   47.880; ZVAL   =   10.000    mass and valenz                      
   RCORE  =    2.500    outmost cutoff radius                                   
   RWIGS  =    2.500; RWIGS  =    1.323    wigner-seitz radius (au A)           
   ENMAX  =  222.335; ENMIN  =  166.751 eV                                      
   RCLOC  =    1.701    cutoff for local pot                                    
   LCOR   =        T    correct aug charges                                     
   LPAW   =        T    paw PP                                                  
   EAUG   =  482.848                                                            
   DEXC   =    0.000                                                            
   RMAX   =    2.564    core radius for proj-oper                               
   RAUG   =    1.300    factor for augmentation sphere                          
   RDEP   =    2.538    radius for radial grids                                 
   RDEPT  =    1.952    core radius for aug-charge                              
                                                                                
   Atomic configuration                                                         
    8 entries                                                                   
     n  l   j            E        occ.                                          
     1  0  0.50     -4865.3608   2.0000                                         
     2  0  0.50      -533.1368   2.0000                                         
     2  1  1.50      -440.5031   6.0000                                         
     3  0  0.50       -59.3186   2.0000                                         
     3  1  1.50       -35.7012   6.0000                                         
     3  2  2.50        -1.9157   3.0000                                         
     4  0  0.50        -3.7291   1.0000                                         
     4  3  2.50        -1.3606   0.0000                                         
   Description                                                                  
     l       E           TYP  RCUT    TYP  RCUT                                 
     1    -35.7012140     23  2.300                                             
     1     -1.3605826     23  2.300                                             
     2     -1.9156996     23  2.500                                             
     2     -0.4063033     23  2.500                                             
     0     -3.7290856     23  2.500                                             
     0     20.4087390     23  2.500                                             
  local pseudopotential read in
  partial core-charges read in
  partial kinetic energy density read in
  atomic valenz-charges read in
  non local Contribution for L=           1  read in
    real space projection operators read in
  non local Contribution for L=           1  read in
    real space projection operators read in
  non local Contribution for L=           2  read in
    real space projection operators read in
  non local Contribution for L=           2  read in
    real space projection operators read in
  non local Contribution for L=           0  read in
    real space projection operators read in
  non local Contribution for L=           0  read in
    real space projection operators read in
    PAW grid and wavefunctions read in
 
   number of l-projection  operators is LMAX  =           6
   number of lm-projection operators is LMMAX =          18
 
 POTCAR:    PAW_PBE Ca_pv 06Sep2000               
   VRHFIN =Ca: p6s2d0.01                                                        
   LEXCH  = PE                                                                  
   EATOM  =   612.6676 eV,   45.0298 Ry                                         
                                                                                
   TITEL  = PAW_PBE Ca_pv 06Sep2000                                             
   LULTRA =        F    use ultrasoft PP ?                                      
   IUNSCR =        1    unscreen: 0-lin 1-nonlin 2-no                           
   RPACOR =    2.300    partial core radius                                     
   POMASS =   40.078; ZVAL   =    8.000    mass and valenz                      
   RCORE  =    3.000    outmost cutoff radius                                   
   RWIGS  =    3.300; RWIGS  =    1.746    wigner-seitz radius (au A)           
   ENMAX  =  119.559; ENMIN  =   89.670 eV                                      
   RCLOC  =    1.709    cutoff for local pot                                    
   LCOR   =        T    correct aug charges                                     
   LPAW   =        T    paw PP                                                  
   EAUG   =  325.799                                                            
   DEXC   =    0.000                                                            
   RMAX   =    3.072    core radius for proj-oper                               
   RAUG   =    1.300    factor for augmentation sphere                          
   RDEP   =    3.090    radius for radial grids                                 
   RDEPT  =    2.377    core radius for aug-charge                              
                                                                                
   Atomic configuration                                                         
    7 entries                                                                   
     n  l   j            E        occ.                                          
     1  0  0.50     -3949.1705   2.0000                                         
     2  0  0.50      -414.3434   2.0000                                         
     2  1  1.50      -334.7047   6.0000                                         
     3  0  0.50       -47.0896   2.0000                                         
     3  1  1.50       -28.0061   6.0000                                         
     4  0  0.50        -3.7663   2.0000                                         
     3  2  1.50        -4.0817   0.0000                                         
   Description                                                                  
     l       E           TYP  RCUT    TYP  RCUT                                 
     1    -28.0060855     23  3.000                                             
     1      1.3605826     23  3.000                                             
     0     -3.7663320     23  3.000                                             
     0      4.1207953     23  3.000                                             
     2     -4.0817478     23  3.000                                             
     2     -0.8716232     23  3.000                                             
  local pseudopotential read in
  partial core-charges read in
  partial kinetic energy density read in
  atomic valenz-charges read in
  non local Contribution for L=           1  read in
    real space projection operators read in
  non local Contribution for L=           1  read in
    real space projection operators read in
  non local Contribution for L=           0  read in
    real space projection operators read in
  non local Contribution for L=           0  read in
    real space projection operators read in
  non local Contribution for L=           2  read in
    real space projection operators read in
  non local Contribution for L=           2  read in
    real space projection operators read in
    PAW grid and wavefunctions read in
 
   number of l-projection  operators is LMAX  =           6
   number of lm-projection operators is LMMAX =          18
 
 POTCAR:    PAW_PBE O 08Apr2002                   
   VRHFIN =O: s2p4                                                              
   LEXCH  = PE                                                                  
   EATOM  =   432.3788 eV,   31.7789 Ry                                         
                                                                                
   TITEL  = PAW_PBE O 08Apr2002                                                 
   LULTRA =        F    use ultrasoft PP ?                                      
   IUNSCR =        1    unscreen: 0-lin 1-nonlin 2-no                           
   RPACOR =    1.200    partial core radius                                     
   POMASS =   16.000; ZVAL   =    6.000    mass and valenz                      
   RCORE  =    1.520    outmost cutoff radius                                   
   RWIGS  =    1.550; RWIGS  =    0.820    wigner-seitz radius (au A)           
   ENMAX  =  400.000; ENMIN  =  300.000 eV                                      
   ICORE  =        2    local potential                                         
   LCOR   =        T    correct aug charges                                     
   LPAW   =        T    paw PP                                                  
   EAUG   =  605.392                                                            
   DEXC   =    0.000                                                            
   RMAX   =    1.553    core radius for proj-oper                               
   RAUG   =    1.300    factor for augmentation sphere                          
   RDEP   =    1.550    radius for radial grids                                 
   RDEPT  =    1.329    core radius for aug-charge                              
                                                                                
   Atomic configuration                                                         
    4 entries                                                                   
     n  l   j            E        occ.                                          
     1  0  0.50      -514.6923   2.0000                                         
     2  0  0.50       -23.9615   2.0000                                         
     2  1  0.50        -9.0305   4.0000                                         
     3  2  1.50        -9.5241   0.0000                                         
   Description                                                                  
     l       E           TYP  RCUT    TYP  RCUT                                 
     0    -23.9615318     23  1.200                                             
     0     -9.5240782     23  1.200                                             
     1     -9.0304911     23  1.520                                             
     1      8.1634956     23  1.520                                             
     2     -9.5240782      7  1.500                                             
  local pseudopotential read in
  partial core-charges read in
  partial kinetic energy density read in
  kinetic energy density of atom read in
  atomic valenz-charges read in
  non local Contribution for L=           0  read in
    real space projection operators read in
  non local Contribution for L=           0  read in
    real space projection operators read in
  non local Contribution for L=           1  read in
    real space projection operators read in
  non local Contribution for L=           1  read in
    real space projection operators read in
    PAW grid and wavefunctions read in
 
   number of l-projection  operators is LMAX  =           4
   number of lm-projection operators is LMMAX =           8
 
  PAW_PBE Ti_pv 07Sep2000               :
 energy of atom  1       EATOM=-1042.5995
 kinetic energy error for atom=    0.0037 (will be added to EATOM!!)
  PAW_PBE Ca_pv 06Sep2000               :
 energy of atom  2       EATOM= -612.6676
 kinetic energy error for atom=    0.0002 (will be added to EATOM!!)
  PAW_PBE O 08Apr2002                   :
 energy of atom  3       EATOM= -432.3788
 kinetic energy error for atom=    0.1156 (will be added to EATOM!!)
 
 
 POSCAR: CaTiO3                                  
  positions in direct lattice
  velocities in cartesian coordinates
  No initial velocities read in
 exchange correlation table for  LEXCH =        8
   RHO(1)=    0.500       N(1)  =     2000
   RHO(2)=  100.500       N(2)  =     4000

 VTST: version 3.1, (03/28/14)

 CHAIN: initializing optimizer
 
 OPT: Using VASP Dynamics algorithm
 CHAIN: Read ICHAIN            0
 
 POSCAR: CaTiO3                                  
  positions in direct lattice
  velocities in cartesian coordinates
  No initial velocities read in
 


--------------------------------------------------------------------------------------------------------


 ion  position               nearest neighbor table
   1  0.000  0.000  0.000-   3 1.94   4 1.94   5 1.94   5 1.94   4 1.94   3 1.94   2 3.36   2 3.36
                             2 3.36   2 3.36   2 3.36   2 3.36   2 3.36   2 3.36
   2  0.500  0.500  0.500-   3 2.75   4 2.75   5 2.75   3 2.75   4 2.75   3 2.75   5 2.75   3 2.75
                             4 2.75   5 2.75   4 2.75   5 2.75   1 3.36   1 3.36   1 3.36   1 3.36
   3  0.500  0.000  0.000-   1 1.94   1 1.94   2 2.75   2 2.75   2 2.75   2 2.75
   4  0.000  0.500  0.000-   1 1.94   1 1.94   2 2.75   2 2.75   2 2.75   2 2.75
   5  0.000  0.000  0.500-   1 1.94   1 1.94   2 2.75   2 2.75   2 2.75   2 2.75
 
  LATTYP: Found a simple cubic cell.
 ALAT       =     3.8822000000
  
  Lattice vectors:
  
 A1 = (   3.8822000000,   0.0000000000,   0.0000000000)
 A2 = (   0.0000000000,   3.8822000000,   0.0000000000)
 A3 = (   0.0000000000,   0.0000000000,   3.8822000000)


Analysis of symmetry for initial positions (statically):
=====================================================================
 Subroutine PRICEL returns:
 Original cell was already a primitive cell.
 

 Routine SETGRP: Setting up the symmetry group for a 
 simple cubic supercell.


 Subroutine GETGRP returns: Found 48 space group operations
 (whereof 48 operations were pure point group operations)
 out of a pool of 48 trial point group operations.


The static configuration has the point symmetry O_h .


Analysis of symmetry for dynamics (positions and initial velocities):
=====================================================================
 Subroutine PRICEL returns:
 Original cell was already a primitive cell.
 

 Routine SETGRP: Setting up the symmetry group for a 
 simple cubic supercell.


 Subroutine GETGRP returns: Found 48 space group operations
 (whereof 48 operations were pure point group operations)
 out of a pool of 48 trial point group operations.


The dynamic configuration has the point symmetry O_h .
 
 
 KPOINTS: k-points                                

Automatic generation of k-mesh.
Space group operators:
 irot       det(A)        alpha          n_x          n_y          n_z        tau_x        tau_y        tau_z
    1     1.000000     0.000000     1.000000     0.000000     0.000000     0.000000     0.000000     0.000000
    2    -1.000000     0.000000     1.000000     0.000000     0.000000     0.000000     0.000000     0.000000
    3     1.000000   120.000000    -0.577350    -0.577350    -0.577350     0.000000     0.000000     0.000000
    4    -1.000000   120.000000    -0.577350    -0.577350    -0.577350     0.000000     0.000000     0.000000
    5     1.000000   120.000000     0.577350     0.577350     0.577350     0.000000     0.000000     0.000000
    6    -1.000000   120.000000     0.577350     0.577350     0.577350     0.000000     0.000000     0.000000
    7     1.000000    90.000000     0.000000     0.000000    -1.000000     0.000000     0.000000     0.000000
    8    -1.000000    90.000000     0.000000     0.000000    -1.000000     0.000000     0.000000     0.000000
    9     1.000000   180.000000     0.000000     0.707107     0.707107     0.000000     0.000000     0.000000
   10    -1.000000   180.000000     0.000000     0.707107     0.707107     0.000000     0.000000     0.000000
   11     1.000000    90.000000     0.000000     1.000000     0.000000     0.000000     0.000000     0.000000
   12    -1.000000    90.000000     0.000000     1.000000     0.000000     0.000000     0.000000     0.000000
   13     1.000000   180.000000     0.000000     0.000000     1.000000     0.000000     0.000000     0.000000
   14    -1.000000   180.000000     0.000000     0.000000     1.000000     0.000000     0.000000     0.000000
   15     1.000000   120.000000    -0.577350     0.577350     0.577350     0.000000     0.000000     0.000000
   16    -1.000000   120.000000    -0.577350     0.577350     0.577350     0.000000     0.000000     0.000000
   17     1.000000   120.000000    -0.577350     0.577350    -0.577350     0.000000     0.000000     0.000000
   18    -1.000000   120.000000    -0.577350     0.577350    -0.577350     0.000000     0.000000     0.000000
   19     1.000000    90.000000     0.000000     0.000000     1.000000     0.000000     0.000000     0.000000
   20    -1.000000    90.000000     0.000000     0.000000     1.000000     0.000000     0.000000     0.000000
   21     1.000000    90.000000    -1.000000     0.000000     0.000000     0.000000     0.000000     0.000000
   22    -1.000000    90.000000    -1.000000     0.000000     0.000000     0.000000     0.000000     0.000000
   23     1.000000   180.000000     0.707107     0.000000     0.707107     0.000000     0.000000     0.000000
   24    -1.000000   180.000000     0.707107     0.000000     0.707107     0.000000     0.000000     0.000000
   25     1.000000   120.000000     0.577350    -0.577350     0.577350     0.000000     0.000000     0.000000
   26    -1.000000   120.000000     0.577350    -0.577350     0.577350     0.000000     0.000000     0.000000
   27     1.000000   120.000000    -0.577350    -0.577350     0.577350     0.000000     0.000000     0.000000
   28    -1.000000   120.000000    -0.577350    -0.577350     0.577350     0.000000     0.000000     0.000000
   29     1.000000   180.000000     1.000000     0.000000     0.000000     0.000000     0.000000     0.000000
   30    -1.000000   180.000000     1.000000     0.000000     0.000000     0.000000     0.000000     0.000000
   31     1.000000    90.000000     0.000000    -1.000000     0.000000     0.000000     0.000000     0.000000
   32    -1.000000    90.000000     0.000000    -1.000000     0.000000     0.000000     0.000000     0.000000
   33     1.000000   180.000000     0.707107     0.707107     0.000000     0.000000     0.000000     0.000000
   34    -1.000000   180.000000     0.707107     0.707107     0.000000     0.000000     0.000000     0.000000
   35     1.000000    90.000000     1.000000     0.000000     0.000000     0.000000     0.000000     0.000000
   36    -1.000000    90.000000     1.000000     0.000000     0.000000     0.000000     0.000000     0.000000
   37     1.000000   120.000000     0.577350    -0.577350    -0.577350     0.000000     0.000000     0.000000
   38    -1.000000   120.000000     0.577350    -0.577350    -0.577350     0.000000     0.000000     0.000000
   39     1.000000   180.000000     0.000000     1.000000     0.000000     0.000000     0.000000     0.000000
   40    -1.000000   180.000000     0.000000     1.000000     0.000000     0.000000     0.000000     0.000000
   41     1.000000   120.000000     0.577350     0.577350    -0.577350     0.000000     0.000000     0.000000
   42    -1.000000   120.000000     0.577350     0.577350    -0.577350     0.000000     0.000000     0.000000
   43     1.000000   180.000000     0.000000    -0.707107     0.707107     0.000000     0.000000     0.000000
   44    -1.000000   180.000000     0.000000    -0.707107     0.707107     0.000000     0.000000     0.000000
   45     1.000000   180.000000     0.707107    -0.707107     0.000000     0.000000     0.000000     0.000000
   46    -1.000000   180.000000     0.707107    -0.707107     0.000000     0.000000     0.000000     0.000000
   47     1.000000   180.000000     0.707107     0.000000    -0.707107     0.000000     0.000000     0.000000
   48    -1.000000   180.000000     0.707107     0.000000    -0.707107     0.000000     0.000000     0.000000
 
 Subroutine IBZKPT returns following result:
 ===========================================
 
 Found     20 irreducible k-points:
 
 Following reciprocal coordinates:
            Coordinates               Weight
  0.000000  0.000000  0.000000      1.000000
  0.142857  0.000000  0.000000      6.000000
  0.285714  0.000000  0.000000      6.000000
  0.428571  0.000000  0.000000      6.000000
  0.142857  0.142857  0.000000     12.000000
  0.285714  0.142857  0.000000     24.000000
  0.428571  0.142857  0.000000     24.000000
  0.285714  0.285714  0.000000     12.000000
  0.428571  0.285714  0.000000     24.000000
  0.428571  0.428571  0.000000     12.000000
  0.142857  0.142857  0.142857      8.000000
  0.285714  0.142857  0.142857     24.000000
  0.428571  0.142857  0.142857     24.000000
  0.285714  0.285714  0.142857     24.000000
  0.428571  0.285714  0.142857     48.000000
  0.428571  0.428571  0.142857     24.000000
  0.285714  0.285714  0.285714      8.000000
  0.428571  0.285714  0.285714     24.000000
  0.428571  0.428571  0.285714     24.000000
  0.428571  0.428571  0.428571      8.000000
 
 Following cartesian coordinates:
            Coordinates               Weight
  0.000000  0.000000  0.000000      1.000000
  0.142857  0.000000  0.000000      6.000000
  0.285714  0.000000  0.000000      6.000000
  0.428571  0.000000  0.000000      6.000000
  0.142857  0.142857  0.000000     12.000000
  0.285714  0.142857  0.000000     24.000000
  0.428571  0.142857  0.000000     24.000000
  0.285714  0.285714  0.000000     12.000000
  0.428571  0.285714  0.000000     24.000000
  0.428571  0.428571  0.000000     12.000000
  0.142857  0.142857  0.142857      8.000000
  0.285714  0.142857  0.142857     24.000000
  0.428571  0.142857  0.142857     24.000000
  0.285714  0.285714  0.142857     24.000000
  0.428571  0.285714  0.142857     48.000000
  0.428571  0.428571  0.142857     24.000000
  0.285714  0.285714  0.285714      8.000000
  0.428571  0.285714  0.285714     24.000000
  0.428571  0.428571  0.285714     24.000000
  0.428571  0.428571  0.428571      8.000000
 


--------------------------------------------------------------------------------------------------------




 Dimension of arrays:
   k-points           NKPTS =     20   k-points in BZ     NKDIM =     20   number of bands    NBANDS=     22
   number of dos      NEDOS =    301   number of ions     NIONS =      5
   non local maximal  LDIM  =      6   non local SUM 2l+1 LMDIM =     18
   total plane-waves  NPLWV =   8000
   max r-space proj   IRMAX =      1   max aug-charges    IRDMAX=   9776
   dimension x,y,z NGX =    20 NGY =   20 NGZ =   20
   dimension x,y,z NGXF=    40 NGYF=   40 NGZF=   40
   support grid    NGXF=    40 NGYF=   40 NGZF=   40
   ions per type =               1   1   3
 NGX,Y,Z   is equivalent  to a cutoff of   8.56,  8.56,  8.56 a.u.
 NGXF,Y,Z  is equivalent  to a cutoff of  17.13, 17.13, 17.13 a.u.


 I would recommend the setting:
   dimension x,y,z NGX =    19 NGY =   19 NGZ =   19
 SYSTEM =  unknown system                          
 POSCAR =  CaTiO3                                  

 Startparameter for this run:
   NWRITE =      2    write-flag & timer
   PREC   = normal    normal or accurate (medium, high low for compatibility)
   ISTART =      0    job   : 0-new  1-cont  2-samecut
   ICHARG =      2    charge: 1-file 2-atom 10-const
   ISPIN  =      1    spin polarized calculation?
   LNONCOLLINEAR =      F non collinear calculations
   LSORBIT =      F    spin-orbit coupling
   INIWAV =      1    electr: 0-lowe 1-rand  2-diag
   LASPH  =      F    aspherical Exc in radial PAW
   METAGGA=      F    non-selfconsistent MetaGGA calc.

 Electronic Relaxation 1
   ENCUT  =  400.0 eV  29.40 Ry    5.42 a.u.   6.33  6.33  6.33*2*pi/ulx,y,z
   ENINI  =  400.0     initial cutoff
   ENAUG  =  605.4 eV  augmentation charge cutoff
   NELM   =     60;   NELMIN=  2; NELMDL= -5     # of ELM steps 
   EDIFF  = 0.1E-03   stopping-criterion for ELM
   LREAL  =      F    real-space projection
   NLSPLINE    = F    spline interpolate recip. space projectors
   LCOMPAT=      F    compatible to vasp.4.4
   GGA_COMPAT  = T    GGA compatible to vasp.4.4-vasp.4.6
   LMAXPAW     = -100 max onsite density
   LMAXMIX     =    2 max onsite mixed and CHGCAR
   VOSKOWN=      0    Vosko Wilk Nusair interpolation
   ROPT   =    0.00000   0.00000   0.00000
 Ionic relaxation
   EDIFFG = 0.1E-02   stopping-criterion for IOM
   NSW    =      0    number of steps for IOM
   NBLOCK =      1;   KBLOCK =      1    inner block; outer block 
   IBRION =     -1    ionic relax: 0-MD 1-quasi-New 2-CG
   NFREE  =      0    steps in history (QN), initial steepest desc. (CG)
   ISIF   =      2    stress and relaxation
   IWAVPR =     10    prediction:  0-non 1-charg 2-wave 3-comb
   ISYM   =      2    0-nonsym 1-usesym 2-fastsym
   LCORR  =      T    Harris-Foulkes like correction to forces

   POTIM  = 0.5000    time-step for ionic-motion
   TEIN   =    0.0    initial temperature
   TEBEG  =    0.0;   TEEND  =   0.0 temperature during run
   SMASS  =  -3.00    Nose mass-parameter (am)
   estimated Nose-frequenzy (Omega)   =  0.10E-29 period in steps =****** mass=  -0.344E-27a.u.
   SCALEE = 1.0000    scale energy and forces
   NPACO  =    256;   APACO  = 16.0  distance and # of slots for P.C.
   PSTRESS=    0.0 pullay stress

  Mass of Ions in am
   POMASS =  47.88 40.08 16.00
  Ionic Valenz
   ZVAL   =  10.00  8.00  6.00
  Atomic Wigner-Seitz radii
   RWIGS  =  -1.00 -1.00 -1.00
  virtual crystal weights 
   VCA    =   1.00  1.00  1.00
   NELECT =      36.0000    total number of electrons
   NUPDOWN=      -1.0000    fix difference up-down

 DOS related values:
   EMIN   =  10.00;   EMAX   =-10.00  energy-range for DOS
   EFERMI =   0.00
   ISMEAR =     1;   SIGMA  =   0.20  broadening in eV -4-tet -1-fermi 0-gaus

 Electronic relaxation 2 (details)
   IALGO  =     38    algorithm
   LDIAG  =      T    sub-space diagonalisation (order eigenvalues)
   LSUBROT=      F    optimize rotation matrix (better conditioning)
   TURBO    =      0    0=normal 1=particle mesh
   IRESTART =      0    0=no restart 2=restart with 2 vectors
   NREBOOT  =      0    no. of reboots
   NMIN     =      0    reboot dimension
   EREF     =   0.00    reference energy to select bands
   IMIX   =      4    mixing-type and parameters
     AMIX     =   0.40;   BMIX     =  1.00
     AMIX_MAG =   1.60;   BMIX_MAG =  1.00
     AMIN     =   0.10
     WC   =   100.;   INIMIX=   1;  MIXPRE=   1;  MAXMIX= -45

 Intra band minimization:
   WEIMIN = 0.0000     energy-eigenvalue tresh-hold
   EBREAK =  0.11E-05  absolut break condition
   DEPER  =   0.30     relativ break condition  

   TIME   =   0.40     timestep for ELM

  volume/ion in A,a.u.               =      11.70        78.97
  Fermi-wavevector in a.u.,A,eV,Ry     =   1.392401  2.631257 26.378723  1.938781
  Thomas-Fermi vector in A             =   2.516148
 
 Write flags
   LWAVE  =      T    write WAVECAR
   LCHARG =      T    write CHGCAR
   LVTOT  =      F    write LOCPOT, total local potential
   LVHAR  =      F    write LOCPOT, Hartree potential only
   LELF   =      F    write electronic localiz. function (ELF)
   LORBIT =      0    0 simple, 1 ext, 2 COOP (PROOUT)


 Dipole corrections
   LMONO  =      F    monopole corrections only (constant potential shift)
   LDIPOL =      F    correct potential (dipole corrections)
   IDIPOL =      0    1-x, 2-y, 3-z, 4-all directions 
   EPSILON=  1.0000000 bulk dielectric constant

 Exchange correlation treatment:
   GGA     =    --    GGA type
   LEXCH   =     8    internal setting for exchange type
   VOSKOWN=      0    Vosko Wilk Nusair interpolation
   LHFCALC =     F    Hartree Fock is set to
   LHFONE  =     F    Hartree Fock one center treatment
   AEXX    =    0.0000 exact exchange contribution

 Linear response parameters
   LEPSILON=     F    determine dielectric tensor
   LRPA    =     F    only Hartree local field effects (RPA)
   LNABLA  =     F    use nabla operator in PAW spheres
   LVEL    =     F    velocity operator in full k-point grid
   LINTERFAST=   F  fast interpolation
   KINTER  =     0    interpolate to denser k-point grid
   CSHIFT  =0.1000    complex shift for real part using Kramers Kronig
   OMEGAMAX=  -1.0    maximum frequency
   DEG_THRESHOLD= 0.2000000E-02 threshold for treating states as degnerate
   RTIME   =    0.100 relaxation time in fs

 Orbital magnetization related:
   ORBITALMAG=     F  switch on orbital magnetization
   LCHIMAG   =     F  perturbation theory with respect to B field
   DQ        =  0.001000  dq finite difference perturbation B field



--------------------------------------------------------------------------------------------------------


 Static calculation
 charge density and potential will be updated during run
 non-spin polarized calculation
 Variant of blocked Davidson
 Davidson routine will perform the subspace rotation
 perform sub-space diagonalisation
    after iterative eigenvector-optimisation
 modified Broyden-mixing scheme, WC =      100.0
 initial mixing is a Kerker type mixing with AMIX =  0.4000 and BMIX =      1.0000
 Hartree-type preconditioning will be used
 using additional bands            4
 reciprocal scheme for non local part
 use partial core corrections
 calculate Harris-corrections to forces 
   (improved forces if not selfconsistent)
 use gradient corrections 
 use of overlap-Matrix (Vanderbilt PP)
 Methfessel and Paxton  Order N= 1 SIGMA  =   0.20


--------------------------------------------------------------------------------------------------------


  energy-cutoff  :      400.00
  volume of cell :       58.51
      direct lattice vectors                 reciprocal lattice vectors
     3.882200000  0.000000000  0.000000000     0.257585905  0.000000000  0.000000000
     0.000000000  3.882200000  0.000000000     0.000000000  0.257585905  0.000000000
     0.000000000  0.000000000  3.882200000     0.000000000  0.000000000  0.257585905

  length of vectors
     3.882200000  3.882200000  3.882200000     0.257585905  0.257585905  0.257585905


 
 k-points in units of 2pi/SCALE and weight: k-points                                
   0.00000000  0.00000000  0.00000000       0.003
   0.14285714  0.00000000  0.00000000       0.017
   0.28571429  0.00000000  0.00000000       0.017
   0.42857143  0.00000000  0.00000000       0.017
   0.14285714  0.14285714  0.00000000       0.035
   0.28571429  0.14285714  0.00000000       0.070
   0.42857143  0.14285714  0.00000000       0.070
   0.28571429  0.28571429  0.00000000       0.035
   0.42857143  0.28571429  0.00000000       0.070
   0.42857143  0.42857143  0.00000000       0.035
   0.14285714  0.14285714  0.14285714       0.023
   0.28571429  0.14285714  0.14285714       0.070
   0.42857143  0.14285714  0.14285714       0.070
   0.28571429  0.28571429  0.14285714       0.070
   0.42857143  0.28571429  0.14285714       0.140
   0.42857143  0.42857143  0.14285714       0.070
   0.28571429  0.28571429  0.28571429       0.023
   0.42857143  0.28571429  0.28571429       0.070
   0.42857143  0.42857143  0.28571429       0.070
   0.42857143  0.42857143  0.42857143       0.023
 
 k-points in reciprocal lattice and weights: k-points                                
   0.00000000  0.00000000  0.00000000       0.003
   0.14285714  0.00000000  0.00000000       0.017
   0.28571429  0.00000000  0.00000000       0.017
   0.42857143  0.00000000  0.00000000       0.017
   0.14285714  0.14285714  0.00000000       0.035
   0.28571429  0.14285714  0.00000000       0.070
   0.42857143  0.14285714  0.00000000       0.070
   0.28571429  0.28571429  0.00000000       0.035
   0.42857143  0.28571429  0.00000000       0.070
   0.42857143  0.42857143  0.00000000       0.035
   0.14285714  0.14285714  0.14285714       0.023
   0.28571429  0.14285714  0.14285714       0.070
   0.42857143  0.14285714  0.14285714       0.070
   0.28571429  0.28571429  0.14285714       0.070
   0.42857143  0.28571429  0.14285714       0.140
   0.42857143  0.42857143  0.14285714       0.070
   0.28571429  0.28571429  0.28571429       0.023
   0.42857143  0.28571429  0.28571429       0.070
   0.42857143  0.42857143  0.28571429       0.070
   0.42857143  0.42857143  0.42857143       0.023
 
 position of ions in fractional coordinates (direct lattice) 
   0.00000000  0.00000000  0.00000000
   0.50000000  0.50000000  0.50000000
   0.50000000  0.00000000  0.00000000
   0.00000000  0.50000000  0.00000000
   0.00000000  0.00000000  0.50000000
 
 position of ions in cartesian coordinates  (Angst):
   0.00000000  0.00000000  0.00000000
   1.94110000  1.94110000  1.94110000
   1.94110000  0.00000000  0.00000000
   0.00000000  1.94110000  0.00000000
   0.00000000  0.00000000  1.94110000
 


--------------------------------------------------------------------------------------------------------


 k-point  1 :   0.0000 0.0000 0.0000  plane waves:    1045
 k-point  2 :   0.1429 0.0000 0.0000  plane waves:    1061
 k-point  3 :   0.2857 0.0000 0.0000  plane waves:    1065
 k-point  4 :   0.4286 0.0000 0.0000  plane waves:    1068
 k-point  5 :   0.1429 0.1429 0.0000  plane waves:    1065
 k-point  6 :   0.2857 0.1429 0.0000  plane waves:    1060
 k-point  7 :   0.4286 0.1429 0.0000  plane waves:    1072
 k-point  8 :   0.2857 0.2857 0.0000  plane waves:    1073
 k-point  9 :   0.4286 0.2857 0.0000  plane waves:    1063
 k-point 10 :   0.4286 0.4286 0.0000  plane waves:    1051
 k-point 11 :   0.1429 0.1429 0.1429  plane waves:    1069
 k-point 12 :   0.2857 0.1429 0.1429  plane waves:    1056
 k-point 13 :   0.4286 0.1429 0.1429  plane waves:    1064
 k-point 14 :   0.2857 0.2857 0.1429  plane waves:    1065
 k-point 15 :   0.4286 0.2857 0.1429  plane waves:    1069
 k-point 16 :   0.4286 0.4286 0.1429  plane waves:    1053
 k-point 17 :   0.2857 0.2857 0.2857  plane waves:    1048
 k-point 18 :   0.4286 0.2857 0.2857  plane waves:    1058
 k-point 19 :   0.4286 0.4286 0.2857  plane waves:    1058
 k-point 20 :   0.4286 0.4286 0.4286  plane waves:    1058

 maximum and minimum number of plane-waves per node :      1073     1045

 maximum number of plane-waves:      1073
 maximum index in each direction: 
   IXMAX=    6   IYMAX=    6   IZMAX=    6
   IXMIN=   -6   IYMIN=   -6   IZMIN=   -6

 WARNING: aliasing errors must be expected set NGX to  26 to avoid them
 WARNING: aliasing errors must be expected set NGY to  26 to avoid them
 WARNING: aliasing errors must be expected set NGZ to  26 to avoid them
 aliasing errors are usually negligible using standard VASP settings
 and one can safely disregard these warnings

 serial   3D FFT for wavefunctions
 parallel 3D FFT for charge:
    minimum data exchange during FFTs selected (reduces bandwidth)


 total amount of memory used by VASP on root node    40526. kBytes
========================================================================

   base      :      30000. kBytes
   nonl-proj :       9400. kBytes
   fftplans  :        145. kBytes
   grid      :        538. kBytes
   one-center:         77. kBytes
   wavefun   :        366. kBytes
 
     INWAV:  cpu time    0.00: real time    0.00
 Broyden mixing: mesh for mixing (old mesh)
   NGX = 13   NGY = 13   NGZ = 13
  (NGX  = 40   NGY  = 40   NGZ  = 40)
  gives a total of   2197 points

 initial charge density was supplied:
 charge density of overlapping atoms calculated
 number of electron      36.0000000 magnetization 
 keeping initial charge density in first step


--------------------------------------------------------------------------------------------------------


 Maximum index for augmentation-charges          517 (set IRDMAX)


--------------------------------------------------------------------------------------------------------


 First call to EWALD:  gamma=   0.457
 Maximum number of real-space cells 3x 3x 3
 Maximum number of reciprocal cells 3x 3x 3

 FEWALD executed in parallel
    FEWALD:  cpu time    0.00: real time    0.00


----------------------------------------- Iteration    1(   1)  ---------------------------------------


    POTLOK:  cpu time    0.00: real time    0.00
    SETDIJ:  cpu time    0.00: real time    0.00
     EDDAV:  cpu time    0.13: real time    0.13
       DOS:  cpu time    0.00: real time    0.00
    --------------------------------------------
      LOOP:  cpu time    0.14: real time    0.14

 eigenvalue-minimisations  :   880
 total energy-change (2. order) : 0.2166756E+03  (-0.1663440E+04)
 number of electron      36.0000000 magnetization 
 augmentation part       36.0000000 magnetization 

 Free energy of the ion-electron system (eV)
  ---------------------------------------------------
  alpha Z        PSCENC =       166.69949767
  Ewald energy   TEWEN  =     -2277.77389946
  -Hartree energ DENC   =      -672.58602360
  -exchange      EXHF   =         0.00000000
  -V(xc)+E(xc)   XCENC  =       135.79004839
  PAW double counting   =      2297.08385515    -2300.16057493
  entropy T*S    EENTRO =         0.00041799
  eigenvalues    EBANDS =       -84.43048185
  atomic energy  EATOM  =      2952.05274943
  ---------------------------------------------------
  free energy    TOTEN  =       216.67558879 eV

  energy without entropy =      216.67517080  energy(sigma->0) =      216.67544946


--------------------------------------------------------------------------------------------------------




----------------------------------------- Iteration    1(   2)  ---------------------------------------


     EDDAV:  cpu time    0.29: real time    0.29
       DOS:  cpu time    0.00: real time    0.00
    --------------------------------------------
      LOOP:  cpu time    0.29: real time    0.29

 eigenvalue-minimisations  :  1540
 total energy-change (2. order) :-0.2587701E+03  (-0.2552306E+03)
 number of electron      36.0000000 magnetization 
 augmentation part       36.0000000 magnetization 

 Free energy of the ion-electron system (eV)
  ---------------------------------------------------
  alpha Z        PSCENC =       166.69949767
  Ewald energy   TEWEN  =     -2277.77389946
  -Hartree energ DENC   =      -672.58602360
  -exchange      EXHF   =         0.00000000
  -V(xc)+E(xc)   XCENC  =       135.79004839
  PAW double counting   =      2297.08385515    -2300.16057493
  entropy T*S    EENTRO =        -0.00062491
  eigenvalues    EBANDS =      -343.19951039
  atomic energy  EATOM  =      2952.05274943
  ---------------------------------------------------
  free energy    TOTEN  =       -42.09448264 eV

  energy without entropy =      -42.09385773  energy(sigma->0) =      -42.09427434


--------------------------------------------------------------------------------------------------------




----------------------------------------- Iteration    1(   3)  ---------------------------------------


     EDDAV:  cpu time    0.14: real time    0.14
       DOS:  cpu time    0.00: real time    0.00
    --------------------------------------------
      LOOP:  cpu time    0.14: real time    0.14

 eigenvalue-minimisations  :   968
 total energy-change (2. order) :-0.7692920E+01  (-0.7571593E+01)
 number of electron      36.0000000 magnetization 
 augmentation part       36.0000000 magnetization 

 Free energy of the ion-electron system (eV)
  ---------------------------------------------------
  alpha Z        PSCENC =       166.69949767
  Ewald energy   TEWEN  =     -2277.77389946
  -Hartree energ DENC   =      -672.58602360
  -exchange      EXHF   =         0.00000000
  -V(xc)+E(xc)   XCENC  =       135.79004839
  PAW double counting   =      2297.08385515    -2300.16057493
  entropy T*S    EENTRO =         0.00614674
  eigenvalues    EBANDS =      -350.89920169
  atomic energy  EATOM  =      2952.05274943
  ---------------------------------------------------
  free energy    TOTEN  =       -49.78740229 eV

  energy without entropy =      -49.79354904  energy(sigma->0) =      -49.78945121


--------------------------------------------------------------------------------------------------------




----------------------------------------- Iteration    1(   4)  ---------------------------------------


     EDDAV:  cpu time    0.25: real time    0.25
       DOS:  cpu time    0.00: real time    0.00
    --------------------------------------------
      LOOP:  cpu time    0.25: real time    0.25

 eigenvalue-minimisations  :  1562
 total energy-change (2. order) :-0.1190668E+00  (-0.1186193E+00)
 number of electron      36.0000000 magnetization 
 augmentation part       36.0000000 magnetization 

 Free energy of the ion-electron system (eV)
  ---------------------------------------------------
  alpha Z        PSCENC =       166.69949767
  Ewald energy   TEWEN  =     -2277.77389946
  -Hartree energ DENC   =      -672.58602360
  -exchange      EXHF   =         0.00000000
  -V(xc)+E(xc)   XCENC  =       135.79004839
  PAW double counting   =      2297.08385515    -2300.16057493
  entropy T*S    EENTRO =         0.00580994
  eigenvalues    EBANDS =      -351.01793167
  atomic energy  EATOM  =      2952.05274943
  ---------------------------------------------------
  free energy    TOTEN  =       -49.90646907 eV

  energy without entropy =      -49.91227901  energy(sigma->0) =      -49.90840572


--------------------------------------------------------------------------------------------------------




----------------------------------------- Iteration    1(   5)  ---------------------------------------


     EDDAV:  cpu time    0.14: real time    0.14
       DOS:  cpu time    0.00: real time    0.00
    CHARGE:  cpu time    0.01: real time    0.01
    MIXING:  cpu time    0.00: real time    0.00
    --------------------------------------------
      LOOP:  cpu time    0.15: real time    0.15

 eigenvalue-minimisations  :  1056
 total energy-change (2. order) :-0.8368861E-03  (-0.8369233E-03)
 number of electron      36.0000031 magnetization 
 augmentation part       10.9345406 magnetization 

 Broyden mixing:
  rms(total) = 0.30918E+01    rms(broyden)= 0.30915E+01
  rms(prec ) = 0.53630E+01
  weight for this iteration     100.00

 Free energy of the ion-electron system (eV)
  ---------------------------------------------------
  alpha Z        PSCENC =       166.69949767
  Ewald energy   TEWEN  =     -2277.77389946
  -Hartree energ DENC   =      -672.58602360
  -exchange      EXHF   =         0.00000000
  -V(xc)+E(xc)   XCENC  =       135.79004839
  PAW double counting   =      2297.08385515    -2300.16057493
  entropy T*S    EENTRO =         0.00580234
  eigenvalues    EBANDS =      -351.01876095
  atomic energy  EATOM  =      2952.05274943
  ---------------------------------------------------
  free energy    TOTEN  =       -49.90730596 eV

  energy without entropy =      -49.91310829  energy(sigma->0) =      -49.90924007


--------------------------------------------------------------------------------------------------------




----------------------------------------- Iteration    1(   6)  ---------------------------------------


    POTLOK:  cpu time    0.00: real time    0.00
    SETDIJ:  cpu time    0.00: real time    0.00
     EDDAV:  cpu time    0.26: real time    0.26
       DOS:  cpu time    0.00: real time    0.00
    CHARGE:  cpu time    0.01: real time    0.01
    MIXING:  cpu time    0.00: real time    0.00
    --------------------------------------------
      LOOP:  cpu time    0.27: real time    0.27

 eigenvalue-minimisations  :  1650
 total energy-change (2. order) : 0.9287652E+01  (-0.8082748E+01)
 number of electron      35.9999992 magnetization 
 augmentation part       11.1278149 magnetization 

 Broyden mixing:
  rms(total) = 0.10212E+01    rms(broyden)= 0.10205E+01
  rms(prec ) = 0.15870E+01
  weight for this iteration     100.00

 eigenvalues of (default mixing * dielectric matrix)
  average eigenvalue GAMMA=   0.9848
  0.9848

 Free energy of the ion-electron system (eV)
  ---------------------------------------------------
  alpha Z        PSCENC =       166.69949767
  Ewald energy   TEWEN  =     -2277.77389946
  -Hartree energ DENC   =      -692.79274767
  -exchange      EXHF   =         0.00000000
  -V(xc)+E(xc)   XCENC  =       138.30547538
  PAW double counting   =      2775.92967734    -2781.74424712
  entropy T*S    EENTRO =         0.00347765
  eigenvalues    EBANDS =      -321.29963740
  atomic energy  EATOM  =      2952.05274943
  ---------------------------------------------------
  free energy    TOTEN  =       -40.61965416 eV

  energy without entropy =      -40.62313182  energy(sigma->0) =      -40.62081338


--------------------------------------------------------------------------------------------------------




----------------------------------------- Iteration    1(   7)  ---------------------------------------


    POTLOK:  cpu time    0.00: real time    0.00
    SETDIJ:  cpu time    0.00: real time    0.00
     EDDAV:  cpu time    0.15: real time    0.15
       DOS:  cpu time    0.00: real time    0.00
    CHARGE:  cpu time    0.01: real time    0.01
    MIXING:  cpu time    0.00: real time    0.00
    --------------------------------------------
      LOOP:  cpu time    0.16: real time    0.16

 eigenvalue-minimisations  :  1122
 total energy-change (2. order) : 0.4462182E+00  (-0.6846173E+00)
 number of electron      36.0000001 magnetization 
 augmentation part       11.0281346 magnetization 

 Broyden mixing:
  rms(total) = 0.79880E+00    rms(broyden)= 0.79879E+00
  rms(prec ) = 0.10070E+01
  weight for this iteration     100.00

 eigenvalues of (default mixing * dielectric matrix)
  average eigenvalue GAMMA=   1.7542
  0.7419  2.7666

 Free energy of the ion-electron system (eV)
  ---------------------------------------------------
  alpha Z        PSCENC =       166.69949767
  Ewald energy   TEWEN  =     -2277.77389946
  -Hartree energ DENC   =      -684.23527978
  -exchange      EXHF   =         0.00000000
  -V(xc)+E(xc)   XCENC  =       137.53198024
  PAW double counting   =      3003.84009079    -3009.57457971
  entropy T*S    EENTRO =         0.00355516
  eigenvalues    EBANDS =      -328.71755034
  atomic energy  EATOM  =      2952.05274943
  ---------------------------------------------------
  free energy    TOTEN  =       -40.17343598 eV

  energy without entropy =      -40.17699115  energy(sigma->0) =      -40.17462104


--------------------------------------------------------------------------------------------------------




----------------------------------------- Iteration    1(   8)  ---------------------------------------


    POTLOK:  cpu time    0.00: real time    0.00
    SETDIJ:  cpu time    0.00: real time    0.00
     EDDAV:  cpu time    0.21: real time    0.21
       DOS:  cpu time    0.00: real time    0.00
    CHARGE:  cpu time    0.01: real time    0.01
    MIXING:  cpu time    0.00: real time    0.00
    --------------------------------------------
      LOOP:  cpu time    0.23: real time    0.23

 eigenvalue-minimisations  :  1474
 total energy-change (2. order) :-0.1354561E+00  (-0.4724604E+00)
 number of electron      35.9999993 magnetization 
 augmentation part       11.2607654 magnetization 

 Broyden mixing:
  rms(total) = 0.59081E+00    rms(broyden)= 0.59076E+00
  rms(prec ) = 0.10751E+01
  weight for this iteration     100.00

 eigenvalues of (default mixing * dielectric matrix)
  average eigenvalue GAMMA=   1.2005
  2.3437  0.8095  0.4482

 Free energy of the ion-electron system (eV)
  ---------------------------------------------------
  alpha Z        PSCENC =       166.69949767
  Ewald energy   TEWEN  =     -2277.77389946
  -Hartree energ DENC   =      -677.62908477
  -exchange      EXHF   =         0.00000000
  -V(xc)+E(xc)   XCENC  =       137.44319959
  PAW double counting   =      3605.71013622    -3612.63603330
  entropy T*S    EENTRO =         0.00350042
  eigenvalues    EBANDS =      -334.17895789
  atomic energy  EATOM  =      2952.05274943
  ---------------------------------------------------
  free energy    TOTEN  =       -40.30889210 eV

  energy without entropy =      -40.31239252  energy(sigma->0) =      -40.31005890


--------------------------------------------------------------------------------------------------------




----------------------------------------- Iteration    1(   9)  ---------------------------------------


    POTLOK:  cpu time    0.00: real time    0.00
    SETDIJ:  cpu time    0.00: real time    0.00
     EDDAV:  cpu time    0.24: real time    0.24
       DOS:  cpu time    0.00: real time    0.00
    CHARGE:  cpu time    0.01: real time    0.01
    MIXING:  cpu time    0.00: real time    0.00
    --------------------------------------------
      LOOP:  cpu time    0.25: real time    0.25

 eigenvalue-minimisations  :  1430
 total energy-change (2. order) : 0.2206748E+00  (-0.1039764E+00)
 number of electron      35.9999996 magnetization 
 augmentation part       11.1566970 magnetization 

 Broyden mixing:
  rms(total) = 0.18304E+00    rms(broyden)= 0.18302E+00
  rms(prec ) = 0.31737E+00
  weight for this iteration     100.00

 eigenvalues of (default mixing * dielectric matrix)
  average eigenvalue GAMMA=   1.4633
  2.2350  2.2350  0.8433  0.5400

 Free energy of the ion-electron system (eV)
  ---------------------------------------------------
  alpha Z        PSCENC =       166.69949767
  Ewald energy   TEWEN  =     -2277.77389946
  -Hartree energ DENC   =      -680.33824912
  -exchange      EXHF   =         0.00000000
  -V(xc)+E(xc)   XCENC  =       137.49058267
  PAW double counting   =      3517.32180137    -3523.98999152
  entropy T*S    EENTRO =         0.00353569
  eigenvalues    EBANDS =      -331.55424404
  atomic energy  EATOM  =      2952.05274943
  ---------------------------------------------------
  free energy    TOTEN  =       -40.08821730 eV

  energy without entropy =      -40.09175300  energy(sigma->0) =      -40.08939587


--------------------------------------------------------------------------------------------------------




----------------------------------------- Iteration    1(  10)  ---------------------------------------


    POTLOK:  cpu time    0.00: real time    0.00
    SETDIJ:  cpu time    0.00: real time    0.00
     EDDAV:  cpu time    0.23: real time    0.23
       DOS:  cpu time    0.00: real time    0.00
    CHARGE:  cpu time    0.01: real time    0.01
    MIXING:  cpu time    0.00: real time    0.00
    --------------------------------------------
      LOOP:  cpu time    0.24: real time    0.24

 eigenvalue-minimisations  :  1452
 total energy-change (2. order) : 0.2121446E-01  (-0.2812849E-01)
 number of electron      35.9999998 magnetization 
 augmentation part       11.1024783 magnetization 

 Broyden mixing:
  rms(total) = 0.55197E-01    rms(broyden)= 0.55145E-01
  rms(prec ) = 0.81960E-01
  weight for this iteration     100.00

 eigenvalues of (default mixing * dielectric matrix)
  average eigenvalue GAMMA=   1.3482
  2.5499  1.6714  1.0748  0.8891  0.5558

 Free energy of the ion-electron system (eV)
  ---------------------------------------------------
  alpha Z        PSCENC =       166.69949767
  Ewald energy   TEWEN  =     -2277.77389946
  -Hartree energ DENC   =      -683.65678731
  -exchange      EXHF   =         0.00000000
  -V(xc)+E(xc)   XCENC  =       137.62959478
  PAW double counting   =      3480.23826586    -3486.78757484
  entropy T*S    EENTRO =         0.00356079
  eigenvalues    EBANDS =      -328.47240977
  atomic energy  EATOM  =      2952.05274943
  ---------------------------------------------------
  free energy    TOTEN  =       -40.06700284 eV

  energy without entropy =      -40.07056363  energy(sigma->0) =      -40.06818977


--------------------------------------------------------------------------------------------------------




----------------------------------------- Iteration    1(  11)  ---------------------------------------


    POTLOK:  cpu time    0.00: real time    0.00
    SETDIJ:  cpu time    0.00: real time    0.00
     EDDAV:  cpu time    0.19: real time    0.19
       DOS:  cpu time    0.00: real time    0.00
    CHARGE:  cpu time    0.01: real time    0.01
    MIXING:  cpu time    0.00: real time    0.00
    --------------------------------------------
      LOOP:  cpu time    0.20: real time    0.20

 eigenvalue-minimisations  :  1320
 total energy-change (2. order) : 0.8248733E-03  (-0.9652269E-03)
 number of electron      35.9999998 magnetization 
 augmentation part       11.1124535 magnetization 

 Broyden mixing:
  rms(total) = 0.58526E-02    rms(broyden)= 0.58469E-02
  rms(prec ) = 0.95301E-02
  weight for this iteration     100.00

 eigenvalues of (default mixing * dielectric matrix)
  average eigenvalue GAMMA=   1.5391
  2.6399  2.6399  1.5396  0.9739  0.8867  0.5546

 Free energy of the ion-electron system (eV)
  ---------------------------------------------------
  alpha Z        PSCENC =       166.69949767
  Ewald energy   TEWEN  =     -2277.77389946
  -Hartree energ DENC   =      -683.24236779
  -exchange      EXHF   =         0.00000000
  -V(xc)+E(xc)   XCENC  =       137.61838036
  PAW double counting   =      3504.92107447    -3511.50954231
  entropy T*S    EENTRO =         0.00355854
  eigenvalues    EBANDS =      -328.83562888
  atomic energy  EATOM  =      2952.05274943
  ---------------------------------------------------
  free energy    TOTEN  =       -40.06617797 eV

  energy without entropy =      -40.06973650  energy(sigma->0) =      -40.06736415


--------------------------------------------------------------------------------------------------------




----------------------------------------- Iteration    1(  12)  ---------------------------------------


    POTLOK:  cpu time    0.00: real time    0.00
    SETDIJ:  cpu time    0.00: real time    0.00
     EDDAV:  cpu time    0.22: real time    0.22
       DOS:  cpu time    0.00: real time    0.00
    --------------------------------------------
      LOOP:  cpu time    0.23: real time    0.23

 eigenvalue-minimisations  :  1474
 total energy-change (2. order) :-0.3978296E-04  (-0.3220512E-04)
 number of electron      35.9999998 magnetization 
 augmentation part       11.1124535 magnetization 

 Free energy of the ion-electron system (eV)
  ---------------------------------------------------
  alpha Z        PSCENC =       166.69949767
  Ewald energy   TEWEN  =     -2277.77389946
  -Hartree energ DENC   =      -683.33088010
  -exchange      EXHF   =         0.00000000
  -V(xc)+E(xc)   XCENC  =       137.62459447
  PAW double counting   =      3497.18839273    -3503.76151221
  entropy T*S    EENTRO =         0.00355751
  eigenvalues    EBANDS =      -328.76871779
  atomic energy  EATOM  =      2952.05274943
  ---------------------------------------------------
  free energy    TOTEN  =       -40.06621775 eV

  energy without entropy =      -40.06977526  energy(sigma->0) =      -40.06740359


--------------------------------------------------------------------------------------------------------




 average (electrostatic) potential at core
  the test charge radii are     1.0397  1.2658  0.7215
  (the norm of the test charge is              1.0000)
       1 -53.1315       2 -45.6253       3 -70.0844       4 -70.0844       5 -70.0844
 
 
 
 E-fermi :   3.7728     XC(G=0): -11.0128     alpha+bet :-13.2781


 k-point     1 :       0.0000    0.0000    0.0000
  band No.  band energies     occupation 
      1     -29.0219      2.00000
      2     -29.0219      2.00000
      3     -29.0219      2.00000
      4     -16.5926      2.00000
      5     -16.5926      2.00000
      6     -16.5926      2.00000
      7     -13.8682      2.00000
      8     -12.7701      2.00000
      9     -12.7701      2.00000
     10       0.6577      2.00000
     11       0.6577      2.00000
     12       0.6577      2.00000
     13       2.5832      2.00000
     14       2.5832      2.00000
     15       2.5832      2.00000
     16       3.2960      2.00383
     17       3.2960      2.00383
     18       3.2960      2.00383
     19       5.5845     -0.00000
     20       5.5845     -0.00000
     21       5.5845     -0.00000
     22       8.0616     -0.00000

 k-point     2 :       0.1429    0.0000    0.0000
  band No.  band energies     occupation 
      1     -29.0363      2.00000
      2     -29.0213      2.00000
      3     -29.0213      2.00000
      4     -16.6391      2.00000
      5     -16.5906      2.00000
      6     -16.5906      2.00000
      7     -13.7484      2.00000
      8     -12.7651      2.00000
      9     -12.7136      2.00000
     10       0.4277      2.00000
     11       0.6683      2.00000
     12       0.6683      2.00000
     13       2.3109      2.00000
     14       2.3109      2.00000
     15       2.4096      2.00000
     16       2.6621      2.00000
     17       3.1916      2.00031
     18       3.1916      2.00031
     19       5.6167     -0.00000
     20       6.0353     -0.00000
     21       6.0353     -0.00000
     22       8.0802     -0.00000

 k-point     3 :       0.2857    0.0000    0.0000
  band No.  band energies     occupation 
      1     -29.0684      2.00000
      2     -29.0200      2.00000
      3     -29.0200      2.00000
      4     -16.7373      2.00000
      5     -16.5861      2.00000
      6     -16.5861      2.00000
      7     -13.4793      2.00000
      8     -12.7497      2.00000
      9     -12.5794      2.00000
     10      -0.1202      2.00000
     11       0.7233      2.00000
     12       0.7233      2.00000
     13       1.6544      2.00000
     14       1.7490      2.00000
     15       1.7490      2.00000
     16       2.0770      2.00000
     17       3.0801      2.00001
     18       3.0801      2.00001
     19       5.6917     -0.00000
     20       6.8670     -0.00000
     21       6.8670     -0.00000
     22       8.0952     -0.00000

 k-point     4 :       0.4286    0.0000    0.0000
  band No.  band energies     occupation 
      1     -29.0939      2.00000
      2     -29.0189      2.00000
      3     -29.0189      2.00000
      4     -16.8108      2.00000
      5     -16.5826      2.00000
      6     -16.5826      2.00000
      7     -13.2663      2.00000
      8     -12.7365      2.00000
      9     -12.4605      2.00000
     10      -0.6135      2.00000
     11       0.8628      2.00000
     12       0.8628      2.00000
     13       1.0850      2.00000
     14       1.2759      2.00000
     15       1.2759      2.00000
     16       1.8379      2.00000
     17       3.0208      2.00000
     18       3.0208      2.00000
     19       5.7549     -0.00000
     20       7.4605     -0.00000
     21       7.4605     -0.00000
     22       8.1013     -0.00000

 k-point     5 :       0.1429    0.1429    0.0000
  band No.  band energies     occupation 
      1     -29.0357      2.00000
      2     -29.0357      2.00000
      3     -29.0207      2.00000
      4     -16.6481      2.00000
      5     -16.6179      2.00000
      6     -16.5885      2.00000
      7     -13.6379      2.00000
      8     -12.7349      2.00000
      9     -12.6825      2.00000
     10       0.2915      2.00000
     11       0.5680      2.00000
     12       0.6778      2.00000
     13       1.7550      2.00000
     14       2.1201      2.00000
     15       2.5512      2.00000
     16       2.5590      2.00000
     17       2.8275      2.00000
     18       3.0227      2.00000
     19       6.0005     -0.00000
     20       6.1131     -0.00000
     21       6.2848     -0.00000
     22       8.3680     -0.00000

 k-point     6 :       0.2857    0.1429    0.0000
  band No.  band energies     occupation 
      1     -29.0679      2.00000
      2     -29.0344      2.00000
      3     -29.0194      2.00000
      4     -16.7265      2.00000
      5     -16.6169      2.00000
      6     -16.5839      2.00000
      7     -13.3934      2.00000
      8     -12.7104      2.00000
      9     -12.5546      2.00000
     10      -0.1671      2.00000
     11       0.4408      2.00000
     12       0.7261      2.00000
     13       1.0481      2.00000
     14       1.6553      2.00000
     15       1.8573      2.00000
     16       2.5424      2.00000
     17       2.6837      2.00000
     18       2.8379      2.00000
     19       6.1045     -0.00000
     20       6.8802     -0.00000
     21       6.9205     -0.00000
     22       8.4785     -0.00000

 k-point     7 :       0.4286    0.1429    0.0000
  band No.  band energies     occupation 
      1     -29.0934      2.00000
      2     -29.0334      2.00000
      3     -29.0183      2.00000
      4     -16.7923      2.00000
      5     -16.6095      2.00000
      6     -16.5802      2.00000
      7     -13.2049      2.00000
      8     -12.6953      2.00000
      9     -12.4315      2.00000
     10      -0.6196      2.00000
     11       0.2161      2.00000
     12       0.7338      2.00000
     13       0.8566      2.00000
     14       1.2189      2.00000
     15       1.5090      2.00000
     16       2.4724      2.00000
     17       2.5689      2.00000
     18       2.7563      2.00000
     19       6.1544     -0.00000
     20       7.4605     -0.00000
     21       7.4626     -0.00000
     22       8.4979     -0.00000

 k-point     8 :       0.2857    0.2857    0.0000
  band No.  band energies     occupation 
      1     -29.0668      2.00000
      2     -29.0667      2.00000
      3     -29.0181      2.00000
      4     -16.7148      2.00000
      5     -16.6717      2.00000
      6     -16.5788      2.00000
      7     -13.2250      2.00000
      8     -12.6122      2.00000
      9     -12.4766      2.00000
     10      -0.4172      2.00000
     11       0.0758      2.00000
     12       0.2529      2.00000
     13       0.7525      2.00000
     14       1.3917      2.00000
     15       1.8530      2.00000
     16       2.0551      2.00000
     17       2.4955      2.00000
     18       3.0796      2.00001
     19       6.8271     -0.00000
     20       6.9655     -0.00000
     21       7.2233     -0.00000
     22       8.8195     -0.00000

 k-point     9 :       0.4286    0.2857    0.0000
  band No.  band energies     occupation 
      1     -29.0924      2.00000
      2     -29.0659      2.00000
      3     -29.0171      2.00000
      4     -16.7510      2.00000
      5     -16.6685      2.00000
      6     -16.5748      2.00000
      7     -13.1263      2.00000
      8     -12.5286      2.00000
      9     -12.3654      2.00000
     10      -0.6850      2.00000
     11      -0.4950      2.00000
     12       0.0564      2.00000
     13       0.8496      2.00000
     14       1.0864      2.00000
     15       1.6771      2.00000
     16       2.0178      2.00000
     17       2.3303      2.00000
     18       3.2161      2.00060
     19       6.9154     -0.00000
     20       7.4644     -0.00000
     21       7.6066     -0.00000
     22       8.9172     -0.00000

 k-point    10 :       0.4286    0.4286    0.0000
  band No.  band energies     occupation 
      1     -29.0916      2.00000
      2     -29.0916      2.00000
      3     -29.0161      2.00000
      4     -16.7204      2.00000
      5     -16.7122      2.00000
      6     -16.5704      2.00000
      7     -13.1102      2.00000
      8     -12.3365      2.00000
      9     -12.3070      2.00000
     10      -0.9934      2.00000
     11      -0.7254      2.00000
     12      -0.4713      2.00000
     13       0.8688      2.00000
     14       0.9501      2.00000
     15       1.7887      2.00000
     16       1.8340      2.00000
     17       2.0787      2.00000
     18       3.5628      2.05916
     19       7.4554     -0.00000
     20       7.4790     -0.00000
     21       7.8555     -0.00000
     22       9.0444     -0.00000

 k-point    11 :       0.1429    0.1429    0.1429
  band No.  band energies     occupation 
      1     -29.0352      2.00000
      2     -29.0351      2.00000
      3     -29.0351      2.00000
      4     -16.6540      2.00000
      5     -16.6142      2.00000
      6     -16.6142      2.00000
      7     -13.5331      2.00000
      8     -12.6802      2.00000
      9     -12.6802      2.00000
     10       0.1625      2.00000
     11       0.5657      2.00000
     12       0.5657      2.00000
     13       1.6493      2.00000
     14       1.6493      2.00000
     15       2.1786      2.00000
     16       2.7782      2.00000
     17       2.8000      2.00000
     18       2.8000      2.00000
     19       6.2406     -0.00000
     20       6.3486     -0.00000
     21       6.3486     -0.00000
     22       8.9689     -0.00000

 k-point    12 :       0.2857    0.1429    0.1429
  band No.  band energies     occupation 
      1     -29.0674      2.00000
      2     -29.0340      2.00000
      3     -29.0337      2.00000
      4     -16.7166      2.00000
      5     -16.6193      2.00000
      6     -16.6057      2.00000
      7     -13.3002      2.00000
      8     -12.6736      2.00000
      9     -12.5427      2.00000
     10      -0.2190      2.00000
     11       0.3620      2.00000
     12       0.5404      2.00000
     13       0.9774      2.00000
     14       1.1214      2.00000
     15       1.9404      2.00000
     16       2.5066      2.00000
     17       2.7324      2.00000
     18       2.7660      2.00000
     19       6.3694     -0.00000
     20       6.9417     -0.00000
     21       6.9569     -0.00000
     22       9.0112     -0.00000

 k-point    13 :       0.4286    0.1429    0.1429
  band No.  band energies     occupation 
      1     -29.0929      2.00000
      2     -29.0331      2.00000
      3     -29.0326      2.00000
      4     -16.7755      2.00000
      5     -16.6121      2.00000
      6     -16.5990      2.00000
      7     -13.1230      2.00000
      8     -12.6705      2.00000
      9     -12.4113      2.00000
     10      -0.6247      2.00000
     11       0.0967      2.00000
     12       0.4659      2.00000
     13       0.5852      2.00000
     14       0.8830      2.00000
     15       2.0088      2.00000
     16       2.2439      2.00000
     17       2.6296      2.00000
     18       2.6907      2.00000
     19       6.4258     -0.00000
     20       7.4684     -0.00000
     21       7.4959     -0.00000
     22       9.0040     -0.00000

 k-point    14 :       0.2857    0.2857    0.1429
  band No.  band energies     occupation 
      1     -29.0662      2.00000
      2     -29.0662      2.00000
      3     -29.0326      2.00000
      4     -16.7056      2.00000
      5     -16.6647      2.00000
      6     -16.6024      2.00000
      7     -13.1161      2.00000
      8     -12.5875      2.00000
      9     -12.4844      2.00000
     10      -0.4365      2.00000
     11       0.0710      2.00000
     12       0.2715      2.00000
     13       0.4529      2.00000
     14       0.8610      2.00000
     15       1.4865      2.00000
     16       2.5368      2.00000
     17       2.5542      2.00000
     18       3.1105      2.00003
     19       6.9461     -0.00000
     20       7.0555     -0.00000
     21       7.2622     -0.00000
     22       9.4796      0.00000

 k-point    15 :       0.4286    0.2857    0.1429
  band No.  band energies     occupation 
      1     -29.0918      2.00000
      2     -29.0652      2.00000
      3     -29.0315      2.00000
      4     -16.7382      2.00000
      5     -16.6624      2.00000
      6     -16.5958      2.00000
      7     -13.0086      2.00000
      8     -12.5352      2.00000
      9     -12.3655      2.00000
     10      -0.6740      2.00000
     11      -0.4585      2.00000
     12       0.0406      2.00000
     13       0.3652      2.00000
     14       0.6281      2.00000
     15       1.4925      2.00000
     16       2.3868      2.00000
     17       2.5363      2.00000
     18       3.2350      2.00095
     19       7.0430     -0.00000
     20       7.5210     -0.00000
     21       7.6444     -0.00000
     22       9.5447      0.00000

 k-point    16 :       0.4286    0.4286    0.1429
  band No.  band energies     occupation 
      1     -29.0909      2.00000
      2     -29.0909      2.00000
      3     -29.0305      2.00000
      4     -16.7106      2.00000
      5     -16.7030      2.00000
      6     -16.5896      2.00000
      7     -12.9816      2.00000
      8     -12.3495      2.00000
      9     -12.3220      2.00000
     10      -0.9163      2.00000
     11      -0.7138      2.00000
     12      -0.4686      2.00000
     13       0.3649      2.00000
     14       0.4188      2.00000
     15       1.4072      2.00000
     16       2.4225      2.00000
     17       2.4353      2.00000
     18       3.5778      2.04472
     19       7.5396     -0.00000
     20       7.5624     -0.00000
     21       7.8978     -0.00000
     22       9.5783      0.00000

 k-point    17 :       0.2857    0.2857    0.2857
  band No.  band energies     occupation 
      1     -29.0652      2.00000
      2     -29.0646      2.00000
      3     -29.0646      2.00000
      4     -16.6909      2.00000
      5     -16.6487      2.00000
      6     -16.6487      2.00000
      7     -12.8903      2.00000
      8     -12.5007      2.00000
      9     -12.5007      2.00000
     10      -0.5294      2.00000
     11       0.0032      2.00000
     12       0.0032      2.00000
     13       0.3384      2.00000
     14       0.3384      2.00000
     15       0.4624      2.00000
     16       2.8743      2.00000
     17       2.8743      2.00000
     18       3.2567      2.00160
     19       7.3007     -0.00000
     20       7.3687     -0.00000
     21       7.3687     -0.00000
     22       9.9086      0.00000

 k-point    18 :       0.4286    0.2857    0.2857
  band No.  band energies     occupation 
      1     -29.0904      2.00000
      2     -29.0640      2.00000
      3     -29.0634      2.00000
      4     -16.7095      2.00000
      5     -16.6549      2.00000
      6     -16.6357      2.00000
      7     -12.7632      2.00000
      8     -12.5146      2.00000
      9     -12.3641      2.00000
     10      -0.6778      2.00000
     11      -0.4235      2.00000
     12      -0.1936      2.00000
     13      -0.1090      2.00000
     14       0.2117      2.00000
     15       0.4677      2.00000
     16       2.9456      2.00000
     17       3.0276      2.00000
     18       3.3618      2.01333
     19       7.4121     -0.00000
     20       7.7051     -0.00000
     21       7.7483     -0.00000
     22      10.0403      0.00000

 k-point    19 :       0.4286    0.4286    0.2857
  band No.  band energies     occupation 
      1     -29.0893      2.00000
      2     -29.0892      2.00000
      3     -29.0625      2.00000
      4     -16.6883      2.00000
      5     -16.6821      2.00000
      6     -16.6322      2.00000
      7     -12.6779      2.00000
      8     -12.3783      2.00000
      9     -12.3560      2.00000
     10      -0.7690      2.00000
     11      -0.6670      2.00000
     12      -0.4633      2.00000
     13      -0.2254      2.00000
     14      -0.1846      2.00000
     15       0.2665      2.00000
     16       3.1564      2.00012
     17       3.1823      2.00024
     18       3.6166      1.97005
     19       7.7836     -0.00000
     20       7.8008     -0.00000
     21       7.9954     -0.00000
     22       9.6893      0.00000

 k-point    20 :       0.4286    0.4286    0.4286
  band No.  band energies     occupation 
      1     -29.0881      2.00000
      2     -29.0879      2.00000
      3     -29.0879      2.00000
      4     -16.6712      2.00000
      5     -16.6651      2.00000
      6     -16.6651      2.00000
      7     -12.4339      2.00000
      8     -12.3835      2.00000
      9     -12.3835      2.00000
     10      -0.8025      2.00000
     11      -0.5812      2.00000
     12      -0.5308      2.00000
     13      -0.5308      2.00000
     14      -0.4413      2.00000
     15      -0.4413      2.00000
     16       3.5858      2.03399
     17       3.5858      2.03399
     18       3.6716      1.74674
     19       8.0559     -0.00000
     20       8.0815     -0.00000
     21       8.0815     -0.00000
     22       9.5819      0.00000


--------------------------------------------------------------------------------------------------------


 soft charge-density along one line, spin component           1
         0         1         2         3         4         5         6         7         8         9
 total charge-density along one line
 
 pseudopotential strength for first ion, spin component:           1
-30.222   0.000  -0.000   7.093  -0.000   0.000  -0.000  -0.000
  0.000 -30.222   0.000  -0.000   7.093  -0.000  -0.000   0.000
 -0.000   0.000 -30.222   0.000  -0.000   7.093   0.000  -0.000
  7.093  -0.000   0.000   3.761   0.000  -0.000   0.000   0.000
 -0.000   7.093  -0.000   0.000   3.761   0.000   0.000  -0.000
  0.000  -0.000   7.093  -0.000   0.000   3.761  -0.000   0.000
 -0.000  -0.000   0.000   0.000   0.000  -0.000  -3.663   0.000
 -0.000   0.000  -0.000   0.000  -0.000   0.000   0.000  -3.663
 -0.000  -0.000   0.000   0.000   0.000  -0.000   0.000   0.000
 -0.000   0.000  -0.000   0.000   0.000   0.000   0.000  -0.000
 -0.000  -0.000  -0.000   0.000   0.000   0.000   0.000  -0.000
 -0.000  -0.000   0.000   0.000   0.000  -0.000  -3.843   0.000
 -0.000   0.000  -0.000   0.000  -0.000   0.000   0.000  -3.843
 -0.000  -0.000  -0.000   0.000   0.000  -0.000   0.000   0.000
 -0.000   0.000  -0.000   0.000   0.000   0.000   0.000  -0.000
 -0.000  -0.000  -0.000   0.000   0.000   0.000   0.000  -0.000
 -0.000   0.000   0.000   0.000  -0.000  -0.000   0.000  -0.000
 -0.000   0.000   0.000  -0.000   0.000   0.000   0.000  -0.000
 total augmentation occupancy for first ion, spin component:           1
  1.975   0.000   0.000  -0.067   0.000   0.000   0.000   0.000   0.000   0.000   0.000   0.000   0.000   0.000   0.000   0.000
 -0.000   1.975  -0.000  -0.000  -0.067  -0.000   0.000   0.000   0.000   0.000   0.000   0.000   0.000   0.000   0.000   0.000
 -0.000   0.000   1.975   0.000   0.000  -0.067   0.000   0.000   0.000   0.000   0.000   0.000   0.000   0.000   0.000   0.000
 -0.067   0.000   0.000   0.339   0.000   0.000   0.000   0.000   0.000   0.000   0.000   0.000   0.000   0.000   0.000   0.000
  0.000  -0.067   0.000   0.000   0.339   0.000   0.000   0.000   0.000   0.000   0.000   0.000   0.000   0.000   0.000   0.000
  0.000   0.000  -0.067   0.000  -0.000   0.339   0.000   0.000   0.000   0.000   0.000   0.000   0.000   0.000   0.000   0.000
  0.000   0.000   0.000   0.000   0.000   0.000   3.673   0.000   0.000  -0.000  -0.000  -2.283   0.000   0.000  -0.000  -0.000
  0.000   0.000   0.000   0.000   0.000   0.000  -0.000   3.673  -0.000  -0.000   0.000   0.000  -2.283  -0.000  -0.000   0.000
  0.000   0.000   0.000   0.000   0.000   0.000  -0.000   0.000  13.357  -0.000  -0.000   0.000  -0.000  -9.265  -0.000   0.000
  0.000   0.000   0.000   0.000   0.000   0.000  -0.000  -0.000  -0.000   3.673  -0.000  -0.000  -0.000  -0.000  -2.283   0.000
  0.000   0.000   0.000   0.000   0.000   0.000  -0.000  -0.000   0.000   0.000  13.357  -0.000   0.000   0.000   0.000  -9.265
  0.000   0.000   0.000   0.000   0.000   0.000  -2.283   0.000   0.000  -0.000   0.000   1.426  -0.000   0.000  -0.000  -0.000
  0.000   0.000   0.000   0.000   0.000   0.000  -0.000  -2.283   0.000   0.000  -0.000   0.000   1.426   0.000   0.000   0.000
  0.000   0.000   0.000   0.000   0.000   0.000  -0.000   0.000  -9.265   0.000   0.000  -0.000   0.000   6.496  -0.000   0.000
  0.000   0.000   0.000   0.000   0.000   0.000   0.000  -0.000  -0.000  -2.283   0.000  -0.000   0.000  -0.000   1.426  -0.000
  0.000   0.000   0.000   0.000   0.000   0.000   0.000   0.000   0.000   0.000  -9.265   0.000  -0.000   0.000  -0.000   6.496
  0.000   0.000   0.000   0.000   0.000   0.000   0.000   0.000  -0.000  -0.000  -0.000   0.000  -0.000  -0.000   0.000  -0.000
  0.000   0.000   0.000   0.000   0.000   0.000   0.000   0.000  -0.000  -0.000   0.000  -0.000   0.000   0.000  -0.000   0.000


------------------------ aborting loop because EDIFF is reached ----------------------------------------


    CHARGE:  cpu time    0.01: real time    0.01
    FORLOC:  cpu time    0.00: real time    0.00
    FORNL :  cpu time    0.02: real time    0.02
    STRESS:  cpu time    0.23: real time    0.23
    FORCOR:  cpu time    0.00: real time    0.00
    FORHAR:  cpu time    0.00: real time    0.00
    MIXING:  cpu time    0.00: real time    0.00
    OFIELD:  cpu time    0.00: real time    0.00

  FORCE on cell =-STRESS in cart. coord.  units (eV):
  Direction    XX          YY          ZZ          XY          YZ          ZX
  --------------------------------------------------------------------------------------
  Alpha Z   166.69950   166.69950   166.69950
  Ewald    -759.25868  -759.25868  -759.25868     0.00000    -0.00000    -0.00000
  Hartree   227.73346   227.73346   227.73346    -0.00000    -0.00000    -0.00000
  E(xc)    -170.15283  -170.15283  -170.15283     0.00000    -0.00000    -0.00000
  Local     -32.55906   -32.55906   -32.55906     0.00000     0.00000     0.00000
  n-local   -91.16003   -88.14089   -84.88793    -0.01652    -0.15518    -0.06519
  augment   133.01770   133.01770   133.01770     0.00000     0.00000     0.00000
  Kinetic   511.64926   523.05748   528.18182    -2.64279    -2.61562    -1.75241
  Fock        0.00000     0.00000     0.00000     0.00000     0.00000     0.00000
  -------------------------------------------------------------------------------------
  Total      -1.62000    -1.62000    -1.62000    -0.00000     0.00000     0.00000
  in kB     -44.36010   -44.36010   -44.36010    -0.00000     0.00000     0.00000
  external pressure =      -44.36 kB  Pullay stress =        0.00 kB


 VOLUME and BASIS-vectors are now :
 -----------------------------------------------------------------------------
  energy-cutoff  :      400.00
  volume of cell :       58.51
      direct lattice vectors                 reciprocal lattice vectors
     3.882200000  0.000000000  0.000000000     0.257585905  0.000000000  0.000000000
     0.000000000  3.882200000  0.000000000     0.000000000  0.257585905  0.000000000
     0.000000000  0.000000000  3.882200000     0.000000000  0.000000000  0.257585905

  length of vectors
     3.882200000  3.882200000  3.882200000     0.257585905  0.257585905  0.257585905


 FORCES acting on ions
    electron-ion (+dipol)            ewald-force                    non-local-force                 convergence-correction
 -----------------------------------------------------------------------------------------------
   0.138E-13 0.311E-13 -.465E-14   -.445E-14 0.121E-13 0.745E-14   0.000E+00 0.000E+00 0.000E+00   -.147E-13 -.133E-13 -.704E-13
   -.603E-13 0.114E-11 0.203E-12   0.857E-14 -.746E-15 0.346E-14   0.000E+00 0.000E+00 0.000E+00   0.681E-15 0.152E-13 0.315E-13
   0.284E-13 0.113E-13 -.257E-11   -.445E-14 -.331E-15 -.257E-14   0.000E+00 0.000E+00 0.000E+00   0.917E-14 -.962E-14 -.210E-13
   0.690E-14 0.344E-13 0.188E-13   -.278E-14 -.416E-14 -.256E-14   0.000E+00 0.000E+00 0.000E+00   0.620E-14 0.216E-13 -.381E-13
   0.961E-14 0.100E-13 0.440E-13   0.319E-14 -.616E-14 -.439E-14   0.000E+00 0.000E+00 0.000E+00   -.137E-13 -.871E-14 0.599E-13
 -----------------------------------------------------------------------------------------------
   -.154E-14 0.123E-11 -.231E-11   0.774E-16 0.667E-15 0.140E-14   0.000E+00 0.000E+00 0.000E+00   -.123E-13 0.508E-14 -.380E-13
 
 
 POSITION                                       TOTAL-FORCE (eV/Angst)
 -----------------------------------------------------------------------------------
      0.00000      0.00000      0.00000         0.000000      0.000000      0.000000
      1.94110      1.94110      1.94110         0.000000      0.000000      0.000000
      1.94110      0.00000      0.00000         0.000000      0.000000      0.000000
      0.00000      1.94110      0.00000         0.000000      0.000000      0.000000
      0.00000      0.00000      1.94110         0.000000      0.000000      0.000000
 -----------------------------------------------------------------------------------
    total drift:                               -0.000000      0.000000     -0.000000


--------------------------------------------------------------------------------------------------------



  FREE ENERGIE OF THE ION-ELECTRON SYSTEM (eV)
  ---------------------------------------------------
  free  energy   TOTEN  =       -40.06621775 eV

  energy  without entropy=      -40.06977526  energy(sigma->0) =      -40.06740359
 


--------------------------------------------------------------------------------------------------------


    POTLOK:  cpu time    0.01: real time    0.01


--------------------------------------------------------------------------------------------------------


 stress matrix after NEB project (eV)
     -1.62000      0.00000      0.00000
     -0.00000     -1.62000      0.00000
     -0.00000      0.00000     -1.62000
  FORCES: max atom, RMS     0.000000    0.000000
  FORCE total and by dimension    0.000000    0.000000
  Stress total and by dimension    2.805926    1.620002
 writing wavefunctions
     LOOP+:  cpu time    2.93: real time    2.93
    4ORBIT:  cpu time    0.00: real time    0.00

 total amount of memory used by VASP on root node    40526. kBytes
========================================================================

   base      :      30000. kBytes
   nonl-proj :       9400. kBytes
   fftplans  :        145. kBytes
   grid      :        538. kBytes
   one-center:         77. kBytes
   wavefun   :        366. kBytes
 
  
  
 General timing and accounting informations for this job:
 ========================================================
  
                  Total CPU time used (sec):        3.331
                            User time (sec):        3.215
                          System time (sec):        0.116
                         Elapsed time (sec):        3.341
  
                   Maximum memory used (kb):       62204.
                   Average memory used (kb):           0.
  
                          Minor page faults:        10919
                          Major page faults:            0
                 Voluntary context switches:          126
