 vasp.5.3.5 31Mar14 (build Dec 17 2015 22:09:37) complex                        
  
 executed on             LinuxIFC date 2017.03.19  04:44:48
 running on   22 total cores
 distrk:  each k-point on   22 cores,    1 groups
 distr:  one band on NCORES_PER_BAND=   1 cores,   22 groups


--------------------------------------------------------------------------------------------------------


 INCAR:
 POTCAR:    PAW_PBE Ti_pv 07Sep2000               
 POTCAR:    PAW_PBE Ca_pv 06Sep2000               
 POTCAR:    PAW_PBE O 08Apr2002                   

 ----------------------------------------------------------------------------- 
|                                                                             |
|           W    W    AA    RRRRR   N    N  II  N    N   GGGG   !!!           |
|           W    W   A  A   R    R  NN   N  II  NN   N  G    G  !!!           |
|           W    W  A    A  R    R  N N  N  II  N N  N  G       !!!           |
|           W WW W  AAAAAA  RRRRR   N  N N  II  N  N N  G  GGG   !            |
|           WW  WW  A    A  R   R   N   NN  II  N   NN  G    G                |
|           W    W  A    A  R    R  N    N  II  N    N   GGGG   !!!           |
|                                                                             |
|      For optimal performance we recommend to set                            |
|        NCORE= 4 - approx SQRT( number of cores)                             |
|      NCORE specifies how many cores store one orbital (NPAR=cpu/NCORE).     |
|      This setting can  greatly improve the performance of VASP for DFT.     |
|      The default, NPAR=number of cores might be grossly inefficient         |
|      on modern multi-core architectures or massively parallel machines.     |
|      Do your own testing !!!!                                               |
|      Unfortunately you need to use the default for GW and RPA calculations. |
|      (for HF NCORE is supported but not extensively tested yet)             |
|                                                                             |
 ----------------------------------------------------------------------------- 

 POTCAR:    PAW_PBE Ti_pv 07Sep2000               
   VRHFIN =Ti: d3 s1                                                            
   LEXCH  = PE                                                                  
   EATOM  =  1042.5995 eV,   76.6289 Ry                                         
                                                                                
   TITEL  = PAW_PBE Ti_pv 07Sep2000                                             
   LULTRA =        F    use ultrasoft PP ?                                      
   IUNSCR =        1    unscreen: 0-lin 1-nonlin 2-no                           
   RPACOR =    2.200    partial core radius                                     
   POMASS =   47.880; ZVAL   =   10.000    mass and valenz                      
   RCORE  =    2.500    outmost cutoff radius                                   
   RWIGS  =    2.500; RWIGS  =    1.323    wigner-seitz radius (au A)           
   ENMAX  =  222.335; ENMIN  =  166.751 eV                                      
   RCLOC  =    1.701    cutoff for local pot                                    
   LCOR   =        T    correct aug charges                                     
   LPAW   =        T    paw PP                                                  
   EAUG   =  482.848                                                            
   DEXC   =    0.000                                                            
   RMAX   =    2.564    core radius for proj-oper                               
   RAUG   =    1.300    factor for augmentation sphere                          
   RDEP   =    2.538    radius for radial grids                                 
   RDEPT  =    1.952    core radius for aug-charge                              
                                                                                
   Atomic configuration                                                         
    8 entries                                                                   
     n  l   j            E        occ.                                          
     1  0  0.50     -4865.3608   2.0000                                         
     2  0  0.50      -533.1368   2.0000                                         
     2  1  1.50      -440.5031   6.0000                                         
     3  0  0.50       -59.3186   2.0000                                         
     3  1  1.50       -35.7012   6.0000                                         
     3  2  2.50        -1.9157   3.0000                                         
     4  0  0.50        -3.7291   1.0000                                         
     4  3  2.50        -1.3606   0.0000                                         
   Description                                                                  
     l       E           TYP  RCUT    TYP  RCUT                                 
     1    -35.7012140     23  2.300                                             
     1     -1.3605826     23  2.300                                             
     2     -1.9156996     23  2.500                                             
     2     -0.4063033     23  2.500                                             
     0     -3.7290856     23  2.500                                             
     0     20.4087390     23  2.500                                             
  local pseudopotential read in
  partial core-charges read in
  partial kinetic energy density read in
  atomic valenz-charges read in
  non local Contribution for L=           1  read in
    real space projection operators read in
  non local Contribution for L=           1  read in
    real space projection operators read in
  non local Contribution for L=           2  read in
    real space projection operators read in
  non local Contribution for L=           2  read in
    real space projection operators read in
  non local Contribution for L=           0  read in
    real space projection operators read in
  non local Contribution for L=           0  read in
    real space projection operators read in
    PAW grid and wavefunctions read in
 
   number of l-projection  operators is LMAX  =           6
   number of lm-projection operators is LMMAX =          18
 
 POTCAR:    PAW_PBE Ca_pv 06Sep2000               
   VRHFIN =Ca: p6s2d0.01                                                        
   LEXCH  = PE                                                                  
   EATOM  =   612.6676 eV,   45.0298 Ry                                         
                                                                                
   TITEL  = PAW_PBE Ca_pv 06Sep2000                                             
   LULTRA =        F    use ultrasoft PP ?                                      
   IUNSCR =        1    unscreen: 0-lin 1-nonlin 2-no                           
   RPACOR =    2.300    partial core radius                                     
   POMASS =   40.078; ZVAL   =    8.000    mass and valenz                      
   RCORE  =    3.000    outmost cutoff radius                                   
   RWIGS  =    3.300; RWIGS  =    1.746    wigner-seitz radius (au A)           
   ENMAX  =  119.559; ENMIN  =   89.670 eV                                      
   RCLOC  =    1.709    cutoff for local pot                                    
   LCOR   =        T    correct aug charges                                     
   LPAW   =        T    paw PP                                                  
   EAUG   =  325.799                                                            
   DEXC   =    0.000                                                            
   RMAX   =    3.072    core radius for proj-oper                               
   RAUG   =    1.300    factor for augmentation sphere                          
   RDEP   =    3.090    radius for radial grids                                 
   RDEPT  =    2.377    core radius for aug-charge                              
                                                                                
   Atomic configuration                                                         
    7 entries                                                                   
     n  l   j            E        occ.                                          
     1  0  0.50     -3949.1705   2.0000                                         
     2  0  0.50      -414.3434   2.0000                                         
     2  1  1.50      -334.7047   6.0000                                         
     3  0  0.50       -47.0896   2.0000                                         
     3  1  1.50       -28.0061   6.0000                                         
     4  0  0.50        -3.7663   2.0000                                         
     3  2  1.50        -4.0817   0.0000                                         
   Description                                                                  
     l       E           TYP  RCUT    TYP  RCUT                                 
     1    -28.0060855     23  3.000                                             
     1      1.3605826     23  3.000                                             
     0     -3.7663320     23  3.000                                             
     0      4.1207953     23  3.000                                             
     2     -4.0817478     23  3.000                                             
     2     -0.8716232     23  3.000                                             
  local pseudopotential read in
  partial core-charges read in
  partial kinetic energy density read in
  atomic valenz-charges read in
  non local Contribution for L=           1  read in
    real space projection operators read in
  non local Contribution for L=           1  read in
    real space projection operators read in
  non local Contribution for L=           0  read in
    real space projection operators read in
  non local Contribution for L=           0  read in
    real space projection operators read in
  non local Contribution for L=           2  read in
    real space projection operators read in
  non local Contribution for L=           2  read in
    real space projection operators read in
    PAW grid and wavefunctions read in
 
   number of l-projection  operators is LMAX  =           6
   number of lm-projection operators is LMMAX =          18
 
 POTCAR:    PAW_PBE O 08Apr2002                   
   VRHFIN =O: s2p4                                                              
   LEXCH  = PE                                                                  
   EATOM  =   432.3788 eV,   31.7789 Ry                                         
                                                                                
   TITEL  = PAW_PBE O 08Apr2002                                                 
   LULTRA =        F    use ultrasoft PP ?                                      
   IUNSCR =        1    unscreen: 0-lin 1-nonlin 2-no                           
   RPACOR =    1.200    partial core radius                                     
   POMASS =   16.000; ZVAL   =    6.000    mass and valenz                      
   RCORE  =    1.520    outmost cutoff radius                                   
   RWIGS  =    1.550; RWIGS  =    0.820    wigner-seitz radius (au A)           
   ENMAX  =  400.000; ENMIN  =  300.000 eV                                      
   ICORE  =        2    local potential                                         
   LCOR   =        T    correct aug charges                                     
   LPAW   =        T    paw PP                                                  
   EAUG   =  605.392                                                            
   DEXC   =    0.000                                                            
   RMAX   =    1.553    core radius for proj-oper                               
   RAUG   =    1.300    factor for augmentation sphere                          
   RDEP   =    1.550    radius for radial grids                                 
   RDEPT  =    1.329    core radius for aug-charge                              
                                                                                
   Atomic configuration                                                         
    4 entries                                                                   
     n  l   j            E        occ.                                          
     1  0  0.50      -514.6923   2.0000                                         
     2  0  0.50       -23.9615   2.0000                                         
     2  1  0.50        -9.0305   4.0000                                         
     3  2  1.50        -9.5241   0.0000                                         
   Description                                                                  
     l       E           TYP  RCUT    TYP  RCUT                                 
     0    -23.9615318     23  1.200                                             
     0     -9.5240782     23  1.200                                             
     1     -9.0304911     23  1.520                                             
     1      8.1634956     23  1.520                                             
     2     -9.5240782      7  1.500                                             
  local pseudopotential read in
  partial core-charges read in
  partial kinetic energy density read in
  kinetic energy density of atom read in
  atomic valenz-charges read in
  non local Contribution for L=           0  read in
    real space projection operators read in
  non local Contribution for L=           0  read in
    real space projection operators read in
  non local Contribution for L=           1  read in
    real space projection operators read in
  non local Contribution for L=           1  read in
    real space projection operators read in
    PAW grid and wavefunctions read in
 
   number of l-projection  operators is LMAX  =           4
   number of lm-projection operators is LMMAX =           8
 
  PAW_PBE Ti_pv 07Sep2000               :
 energy of atom  1       EATOM=-1042.5995
 kinetic energy error for atom=    0.0037 (will be added to EATOM!!)
  PAW_PBE Ca_pv 06Sep2000               :
 energy of atom  2       EATOM= -612.6676
 kinetic energy error for atom=    0.0002 (will be added to EATOM!!)
  PAW_PBE O 08Apr2002                   :
 energy of atom  3       EATOM= -432.3788
 kinetic energy error for atom=    0.1156 (will be added to EATOM!!)
 
 
 POSCAR: CaTiO3                                  
  positions in direct lattice
  velocities in cartesian coordinates
  No initial velocities read in
 exchange correlation table for  LEXCH =        8
   RHO(1)=    0.500       N(1)  =     2000
   RHO(2)=  100.500       N(2)  =     4000

 VTST: version 3.1, (03/28/14)

 CHAIN: initializing optimizer
 
 OPT: Using VASP Dynamics algorithm
 CHAIN: Read ICHAIN            0
 
 POSCAR: CaTiO3                                  
  positions in direct lattice
  velocities in cartesian coordinates
  No initial velocities read in
 


--------------------------------------------------------------------------------------------------------


 ion  position               nearest neighbor table
   1  0.000  0.000  0.000-   3 1.94   4 1.94   5 1.94   5 1.94   4 1.94   3 1.94   2 3.36   2 3.36
                             2 3.36   2 3.36   2 3.36   2 3.36   2 3.36   2 3.36
   2  0.500  0.500  0.500-   3 2.75   4 2.75   5 2.75   3 2.75   4 2.75   3 2.75   5 2.75   3 2.75
                             4 2.75   5 2.75   4 2.75   5 2.75   1 3.36   1 3.36   1 3.36   1 3.36
   3  0.500  0.000  0.000-   1 1.94   1 1.94   2 2.75   2 2.75   2 2.75   2 2.75
   4  0.000  0.500  0.000-   1 1.94   1 1.94   2 2.75   2 2.75   2 2.75   2 2.75
   5  0.000  0.000  0.500-   1 1.94   1 1.94   2 2.75   2 2.75   2 2.75   2 2.75
 
  LATTYP: Found a simple cubic cell.
 ALAT       =     3.8843800000
  
  Lattice vectors:
  
 A1 = (   3.8843800000,   0.0000000000,   0.0000000000)
 A2 = (   0.0000000000,   3.8843800000,   0.0000000000)
 A3 = (   0.0000000000,   0.0000000000,   3.8843800000)


Analysis of symmetry for initial positions (statically):
=====================================================================
 Subroutine PRICEL returns:
 Original cell was already a primitive cell.
 

 Routine SETGRP: Setting up the symmetry group for a 
 simple cubic supercell.


 Subroutine GETGRP returns: Found 48 space group operations
 (whereof 48 operations were pure point group operations)
 out of a pool of 48 trial point group operations.


The static configuration has the point symmetry O_h .


Analysis of symmetry for dynamics (positions and initial velocities):
=====================================================================
 Subroutine PRICEL returns:
 Original cell was already a primitive cell.
 

 Routine SETGRP: Setting up the symmetry group for a 
 simple cubic supercell.


 Subroutine GETGRP returns: Found 48 space group operations
 (whereof 48 operations were pure point group operations)
 out of a pool of 48 trial point group operations.


The dynamic configuration has the point symmetry O_h .
 
 
 KPOINTS: k-points                                

Automatic generation of k-mesh.
Space group operators:
 irot       det(A)        alpha          n_x          n_y          n_z        tau_x        tau_y        tau_z
    1     1.000000     0.000000     1.000000     0.000000     0.000000     0.000000     0.000000     0.000000
    2    -1.000000     0.000000     1.000000     0.000000     0.000000     0.000000     0.000000     0.000000
    3     1.000000   120.000000    -0.577350    -0.577350    -0.577350     0.000000     0.000000     0.000000
    4    -1.000000   120.000000    -0.577350    -0.577350    -0.577350     0.000000     0.000000     0.000000
    5     1.000000   120.000000     0.577350     0.577350     0.577350     0.000000     0.000000     0.000000
    6    -1.000000   120.000000     0.577350     0.577350     0.577350     0.000000     0.000000     0.000000
    7     1.000000    90.000000     0.000000     0.000000    -1.000000     0.000000     0.000000     0.000000
    8    -1.000000    90.000000     0.000000     0.000000    -1.000000     0.000000     0.000000     0.000000
    9     1.000000   180.000000     0.000000     0.707107     0.707107     0.000000     0.000000     0.000000
   10    -1.000000   180.000000     0.000000     0.707107     0.707107     0.000000     0.000000     0.000000
   11     1.000000    90.000000     0.000000     1.000000     0.000000     0.000000     0.000000     0.000000
   12    -1.000000    90.000000     0.000000     1.000000     0.000000     0.000000     0.000000     0.000000
   13     1.000000   180.000000     0.000000     0.000000     1.000000     0.000000     0.000000     0.000000
   14    -1.000000   180.000000     0.000000     0.000000     1.000000     0.000000     0.000000     0.000000
   15     1.000000   120.000000    -0.577350     0.577350     0.577350     0.000000     0.000000     0.000000
   16    -1.000000   120.000000    -0.577350     0.577350     0.577350     0.000000     0.000000     0.000000
   17     1.000000   120.000000    -0.577350     0.577350    -0.577350     0.000000     0.000000     0.000000
   18    -1.000000   120.000000    -0.577350     0.577350    -0.577350     0.000000     0.000000     0.000000
   19     1.000000    90.000000     0.000000     0.000000     1.000000     0.000000     0.000000     0.000000
   20    -1.000000    90.000000     0.000000     0.000000     1.000000     0.000000     0.000000     0.000000
   21     1.000000    90.000000    -1.000000     0.000000     0.000000     0.000000     0.000000     0.000000
   22    -1.000000    90.000000    -1.000000     0.000000     0.000000     0.000000     0.000000     0.000000
   23     1.000000   180.000000     0.707107     0.000000     0.707107     0.000000     0.000000     0.000000
   24    -1.000000   180.000000     0.707107     0.000000     0.707107     0.000000     0.000000     0.000000
   25     1.000000   120.000000     0.577350    -0.577350     0.577350     0.000000     0.000000     0.000000
   26    -1.000000   120.000000     0.577350    -0.577350     0.577350     0.000000     0.000000     0.000000
   27     1.000000   120.000000    -0.577350    -0.577350     0.577350     0.000000     0.000000     0.000000
   28    -1.000000   120.000000    -0.577350    -0.577350     0.577350     0.000000     0.000000     0.000000
   29     1.000000   180.000000     1.000000     0.000000     0.000000     0.000000     0.000000     0.000000
   30    -1.000000   180.000000     1.000000     0.000000     0.000000     0.000000     0.000000     0.000000
   31     1.000000    90.000000     0.000000    -1.000000     0.000000     0.000000     0.000000     0.000000
   32    -1.000000    90.000000     0.000000    -1.000000     0.000000     0.000000     0.000000     0.000000
   33     1.000000   180.000000     0.707107     0.707107     0.000000     0.000000     0.000000     0.000000
   34    -1.000000   180.000000     0.707107     0.707107     0.000000     0.000000     0.000000     0.000000
   35     1.000000    90.000000     1.000000     0.000000     0.000000     0.000000     0.000000     0.000000
   36    -1.000000    90.000000     1.000000     0.000000     0.000000     0.000000     0.000000     0.000000
   37     1.000000   120.000000     0.577350    -0.577350    -0.577350     0.000000     0.000000     0.000000
   38    -1.000000   120.000000     0.577350    -0.577350    -0.577350     0.000000     0.000000     0.000000
   39     1.000000   180.000000     0.000000     1.000000     0.000000     0.000000     0.000000     0.000000
   40    -1.000000   180.000000     0.000000     1.000000     0.000000     0.000000     0.000000     0.000000
   41     1.000000   120.000000     0.577350     0.577350    -0.577350     0.000000     0.000000     0.000000
   42    -1.000000   120.000000     0.577350     0.577350    -0.577350     0.000000     0.000000     0.000000
   43     1.000000   180.000000     0.000000    -0.707107     0.707107     0.000000     0.000000     0.000000
   44    -1.000000   180.000000     0.000000    -0.707107     0.707107     0.000000     0.000000     0.000000
   45     1.000000   180.000000     0.707107    -0.707107     0.000000     0.000000     0.000000     0.000000
   46    -1.000000   180.000000     0.707107    -0.707107     0.000000     0.000000     0.000000     0.000000
   47     1.000000   180.000000     0.707107     0.000000    -0.707107     0.000000     0.000000     0.000000
   48    -1.000000   180.000000     0.707107     0.000000    -0.707107     0.000000     0.000000     0.000000
 
 Subroutine IBZKPT returns following result:
 ===========================================
 
 Found     20 irreducible k-points:
 
 Following reciprocal coordinates:
            Coordinates               Weight
  0.000000  0.000000  0.000000      1.000000
  0.142857  0.000000  0.000000      6.000000
  0.285714  0.000000  0.000000      6.000000
  0.428571  0.000000  0.000000      6.000000
  0.142857  0.142857  0.000000     12.000000
  0.285714  0.142857  0.000000     24.000000
  0.428571  0.142857  0.000000     24.000000
  0.285714  0.285714  0.000000     12.000000
  0.428571  0.285714  0.000000     24.000000
  0.428571  0.428571  0.000000     12.000000
  0.142857  0.142857  0.142857      8.000000
  0.285714  0.142857  0.142857     24.000000
  0.428571  0.142857  0.142857     24.000000
  0.285714  0.285714  0.142857     24.000000
  0.428571  0.285714  0.142857     48.000000
  0.428571  0.428571  0.142857     24.000000
  0.285714  0.285714  0.285714      8.000000
  0.428571  0.285714  0.285714     24.000000
  0.428571  0.428571  0.285714     24.000000
  0.428571  0.428571  0.428571      8.000000
 
 Following cartesian coordinates:
            Coordinates               Weight
  0.000000  0.000000  0.000000      1.000000
  0.142857  0.000000  0.000000      6.000000
  0.285714  0.000000  0.000000      6.000000
  0.428571  0.000000  0.000000      6.000000
  0.142857  0.142857  0.000000     12.000000
  0.285714  0.142857  0.000000     24.000000
  0.428571  0.142857  0.000000     24.000000
  0.285714  0.285714  0.000000     12.000000
  0.428571  0.285714  0.000000     24.000000
  0.428571  0.428571  0.000000     12.000000
  0.142857  0.142857  0.142857      8.000000
  0.285714  0.142857  0.142857     24.000000
  0.428571  0.142857  0.142857     24.000000
  0.285714  0.285714  0.142857     24.000000
  0.428571  0.285714  0.142857     48.000000
  0.428571  0.428571  0.142857     24.000000
  0.285714  0.285714  0.285714      8.000000
  0.428571  0.285714  0.285714     24.000000
  0.428571  0.428571  0.285714     24.000000
  0.428571  0.428571  0.428571      8.000000
 


--------------------------------------------------------------------------------------------------------




 Dimension of arrays:
   k-points           NKPTS =     20   k-points in BZ     NKDIM =     20   number of bands    NBANDS=     22
   number of dos      NEDOS =    301   number of ions     NIONS =      5
   non local maximal  LDIM  =      6   non local SUM 2l+1 LMDIM =     18
   total plane-waves  NPLWV =   8000
   max r-space proj   IRMAX =      1   max aug-charges    IRDMAX=   9760
   dimension x,y,z NGX =    20 NGY =   20 NGZ =   20
   dimension x,y,z NGXF=    40 NGYF=   40 NGZF=   40
   support grid    NGXF=    40 NGYF=   40 NGZF=   40
   ions per type =               1   1   3
 NGX,Y,Z   is equivalent  to a cutoff of   8.56,  8.56,  8.56 a.u.
 NGXF,Y,Z  is equivalent  to a cutoff of  17.12, 17.12, 17.12 a.u.


 I would recommend the setting:
   dimension x,y,z NGX =    19 NGY =   19 NGZ =   19
 SYSTEM =  unknown system                          
 POSCAR =  CaTiO3                                  

 Startparameter for this run:
   NWRITE =      2    write-flag & timer
   PREC   = normal    normal or accurate (medium, high low for compatibility)
   ISTART =      0    job   : 0-new  1-cont  2-samecut
   ICHARG =      2    charge: 1-file 2-atom 10-const
   ISPIN  =      1    spin polarized calculation?
   LNONCOLLINEAR =      F non collinear calculations
   LSORBIT =      F    spin-orbit coupling
   INIWAV =      1    electr: 0-lowe 1-rand  2-diag
   LASPH  =      F    aspherical Exc in radial PAW
   METAGGA=      F    non-selfconsistent MetaGGA calc.

 Electronic Relaxation 1
   ENCUT  =  400.0 eV  29.40 Ry    5.42 a.u.   6.33  6.33  6.33*2*pi/ulx,y,z
   ENINI  =  400.0     initial cutoff
   ENAUG  =  605.4 eV  augmentation charge cutoff
   NELM   =     60;   NELMIN=  2; NELMDL=  0     # of ELM steps 
   EDIFF  = 0.1E-03   stopping-criterion for ELM
   LREAL  =      F    real-space projection
   NLSPLINE    = F    spline interpolate recip. space projectors
   LCOMPAT=      F    compatible to vasp.4.4
   GGA_COMPAT  = T    GGA compatible to vasp.4.4-vasp.4.6
   LMAXPAW     = -100 max onsite density
   LMAXMIX     =    2 max onsite mixed and CHGCAR
   VOSKOWN=      0    Vosko Wilk Nusair interpolation
   ROPT   =    0.00000   0.00000   0.00000
 Ionic relaxation
   EDIFFG = 0.1E-02   stopping-criterion for IOM
   NSW    =      0    number of steps for IOM
   NBLOCK =      1;   KBLOCK =      1    inner block; outer block 
   IBRION =     -1    ionic relax: 0-MD 1-quasi-New 2-CG
   NFREE  =      0    steps in history (QN), initial steepest desc. (CG)
   ISIF   =      2    stress and relaxation
   IWAVPR =     10    prediction:  0-non 1-charg 2-wave 3-comb
   ISYM   =      2    0-nonsym 1-usesym 2-fastsym
   LCORR  =      T    Harris-Foulkes like correction to forces

   POTIM  = 0.5000    time-step for ionic-motion
   TEIN   =    0.0    initial temperature
   TEBEG  =    0.0;   TEEND  =   0.0 temperature during run
   SMASS  =  -3.00    Nose mass-parameter (am)
   estimated Nose-frequenzy (Omega)   =  0.10E-29 period in steps =****** mass=  -0.345E-27a.u.
   SCALEE = 1.0000    scale energy and forces
   NPACO  =    256;   APACO  = 16.0  distance and # of slots for P.C.
   PSTRESS=    0.0 pullay stress

  Mass of Ions in am
   POMASS =  47.88 40.08 16.00
  Ionic Valenz
   ZVAL   =  10.00  8.00  6.00
  Atomic Wigner-Seitz radii
   RWIGS  =  -1.00 -1.00 -1.00
  virtual crystal weights 
   VCA    =   1.00  1.00  1.00
   NELECT =      36.0000    total number of electrons
   NUPDOWN=      -1.0000    fix difference up-down

 DOS related values:
   EMIN   =  10.00;   EMAX   =-10.00  energy-range for DOS
   EFERMI =   0.00
   ISMEAR =     1;   SIGMA  =   0.20  broadening in eV -4-tet -1-fermi 0-gaus

 Electronic relaxation 2 (details)
   IALGO  =     38    algorithm
   LDIAG  =      T    sub-space diagonalisation (order eigenvalues)
   LSUBROT=      F    optimize rotation matrix (better conditioning)
   TURBO    =      0    0=normal 1=particle mesh
   IRESTART =      0    0=no restart 2=restart with 2 vectors
   NREBOOT  =      0    no. of reboots
   NMIN     =      0    reboot dimension
   EREF     =   0.00    reference energy to select bands
   IMIX   =      4    mixing-type and parameters
     AMIX     =   0.40;   BMIX     =  1.00
     AMIX_MAG =   1.60;   BMIX_MAG =  1.00
     AMIN     =   0.10
     WC   =   100.;   INIMIX=   1;  MIXPRE=   1;  MAXMIX= -45

 Intra band minimization:
   WEIMIN = 0.0000     energy-eigenvalue tresh-hold
   EBREAK =  0.11E-05  absolut break condition
   DEPER  =   0.30     relativ break condition  

   TIME   =   0.40     timestep for ELM

  volume/ion in A,a.u.               =      11.72        79.10
  Fermi-wavevector in a.u.,A,eV,Ry     =   1.391620  2.629780 26.349122  1.936606
  Thomas-Fermi vector in A             =   2.515441
 
 Write flags
   LWAVE  =      T    write WAVECAR
   LCHARG =      T    write CHGCAR
   LVTOT  =      F    write LOCPOT, total local potential
   LVHAR  =      F    write LOCPOT, Hartree potential only
   LELF   =      F    write electronic localiz. function (ELF)
   LORBIT =      0    0 simple, 1 ext, 2 COOP (PROOUT)


 Dipole corrections
   LMONO  =      F    monopole corrections only (constant potential shift)
   LDIPOL =      F    correct potential (dipole corrections)
   IDIPOL =      0    1-x, 2-y, 3-z, 4-all directions 
   EPSILON=  1.0000000 bulk dielectric constant

 Exchange correlation treatment:
   GGA     =    --    GGA type
   LEXCH   =     8    internal setting for exchange type
   VOSKOWN=      0    Vosko Wilk Nusair interpolation
   LHFCALC =     F    Hartree Fock is set to
   LHFONE  =     F    Hartree Fock one center treatment
   AEXX    =    0.0000 exact exchange contribution

 Linear response parameters
   LEPSILON=     F    determine dielectric tensor
   LRPA    =     F    only Hartree local field effects (RPA)
   LNABLA  =     F    use nabla operator in PAW spheres
   LVEL    =     F    velocity operator in full k-point grid
   LINTERFAST=   F  fast interpolation
   KINTER  =     0    interpolate to denser k-point grid
   CSHIFT  =0.1000    complex shift for real part using Kramers Kronig
   OMEGAMAX=  -1.0    maximum frequency
   DEG_THRESHOLD= 0.2000000E-02 threshold for treating states as degnerate
   RTIME   =    0.100 relaxation time in fs

 Orbital magnetization related:
   ORBITALMAG=     F  switch on orbital magnetization
   LCHIMAG   =     F  perturbation theory with respect to B field
   DQ        =  0.001000  dq finite difference perturbation B field



--------------------------------------------------------------------------------------------------------


 Static calculation
 charge density and potential will be updated during run
 non-spin polarized calculation
 Variant of blocked Davidson
 Davidson routine will perform the subspace rotation
 perform sub-space diagonalisation
    after iterative eigenvector-optimisation
 modified Broyden-mixing scheme, WC =      100.0
 initial mixing is a Kerker type mixing with AMIX =  0.4000 and BMIX =      1.0000
 Hartree-type preconditioning will be used
 using additional bands            4
 reciprocal scheme for non local part
 use partial core corrections
 calculate Harris-corrections to forces 
   (improved forces if not selfconsistent)
 use gradient corrections 
 use of overlap-Matrix (Vanderbilt PP)
 Methfessel and Paxton  Order N= 1 SIGMA  =   0.20


--------------------------------------------------------------------------------------------------------


  energy-cutoff  :      400.00
  volume of cell :       58.61
      direct lattice vectors                 reciprocal lattice vectors
     3.884380000  0.000000000  0.000000000     0.257441342  0.000000000  0.000000000
     0.000000000  3.884380000  0.000000000     0.000000000  0.257441342  0.000000000
     0.000000000  0.000000000  3.884380000     0.000000000  0.000000000  0.257441342

  length of vectors
     3.884380000  3.884380000  3.884380000     0.257441342  0.257441342  0.257441342


 
 k-points in units of 2pi/SCALE and weight: k-points                                
   0.00000000  0.00000000  0.00000000       0.003
   0.14285714  0.00000000  0.00000000       0.017
   0.28571429  0.00000000  0.00000000       0.017
   0.42857143  0.00000000  0.00000000       0.017
   0.14285714  0.14285714  0.00000000       0.035
   0.28571429  0.14285714  0.00000000       0.070
   0.42857143  0.14285714  0.00000000       0.070
   0.28571429  0.28571429  0.00000000       0.035
   0.42857143  0.28571429  0.00000000       0.070
   0.42857143  0.42857143  0.00000000       0.035
   0.14285714  0.14285714  0.14285714       0.023
   0.28571429  0.14285714  0.14285714       0.070
   0.42857143  0.14285714  0.14285714       0.070
   0.28571429  0.28571429  0.14285714       0.070
   0.42857143  0.28571429  0.14285714       0.140
   0.42857143  0.42857143  0.14285714       0.070
   0.28571429  0.28571429  0.28571429       0.023
   0.42857143  0.28571429  0.28571429       0.070
   0.42857143  0.42857143  0.28571429       0.070
   0.42857143  0.42857143  0.42857143       0.023
 
 k-points in reciprocal lattice and weights: k-points                                
   0.00000000  0.00000000  0.00000000       0.003
   0.14285714  0.00000000  0.00000000       0.017
   0.28571429  0.00000000  0.00000000       0.017
   0.42857143  0.00000000  0.00000000       0.017
   0.14285714  0.14285714  0.00000000       0.035
   0.28571429  0.14285714  0.00000000       0.070
   0.42857143  0.14285714  0.00000000       0.070
   0.28571429  0.28571429  0.00000000       0.035
   0.42857143  0.28571429  0.00000000       0.070
   0.42857143  0.42857143  0.00000000       0.035
   0.14285714  0.14285714  0.14285714       0.023
   0.28571429  0.14285714  0.14285714       0.070
   0.42857143  0.14285714  0.14285714       0.070
   0.28571429  0.28571429  0.14285714       0.070
   0.42857143  0.28571429  0.14285714       0.140
   0.42857143  0.42857143  0.14285714       0.070
   0.28571429  0.28571429  0.28571429       0.023
   0.42857143  0.28571429  0.28571429       0.070
   0.42857143  0.42857143  0.28571429       0.070
   0.42857143  0.42857143  0.42857143       0.023
 
 position of ions in fractional coordinates (direct lattice) 
   0.00000000  0.00000000  0.00000000
   0.50000000  0.50000000  0.50000000
   0.50000000  0.00000000  0.00000000
   0.00000000  0.50000000  0.00000000
   0.00000000  0.00000000  0.50000000
 
 position of ions in cartesian coordinates  (Angst):
   0.00000000  0.00000000  0.00000000
   1.94219000  1.94219000  1.94219000
   1.94219000  0.00000000  0.00000000
   0.00000000  1.94219000  0.00000000
   0.00000000  0.00000000  1.94219000
 


--------------------------------------------------------------------------------------------------------


 k-point  1 :   0.0000 0.0000 0.0000  plane waves:    1045
 k-point  2 :   0.1429 0.0000 0.0000  plane waves:    1061
 k-point  3 :   0.2857 0.0000 0.0000  plane waves:    1073
 k-point  4 :   0.4286 0.0000 0.0000  plane waves:    1068
 k-point  5 :   0.1429 0.1429 0.0000  plane waves:    1065
 k-point  6 :   0.2857 0.1429 0.0000  plane waves:    1070
 k-point  7 :   0.4286 0.1429 0.0000  plane waves:    1072
 k-point  8 :   0.2857 0.2857 0.0000  plane waves:    1073
 k-point  9 :   0.4286 0.2857 0.0000  plane waves:    1071
 k-point 10 :   0.4286 0.4286 0.0000  plane waves:    1057
 k-point 11 :   0.1429 0.1429 0.1429  plane waves:    1069
 k-point 12 :   0.2857 0.1429 0.1429  plane waves:    1064
 k-point 13 :   0.4286 0.1429 0.1429  plane waves:    1068
 k-point 14 :   0.2857 0.2857 0.1429  plane waves:    1065
 k-point 15 :   0.4286 0.2857 0.1429  plane waves:    1069
 k-point 16 :   0.4286 0.4286 0.1429  plane waves:    1059
 k-point 17 :   0.2857 0.2857 0.2857  plane waves:    1060
 k-point 18 :   0.4286 0.2857 0.2857  plane waves:    1058
 k-point 19 :   0.4286 0.4286 0.2857  plane waves:    1058
 k-point 20 :   0.4286 0.4286 0.4286  plane waves:    1064

 maximum and minimum number of plane-waves per node :      1073     1045

 maximum number of plane-waves:      1073
 maximum index in each direction: 
   IXMAX=    6   IYMAX=    6   IZMAX=    6
   IXMIN=   -6   IYMIN=   -6   IZMIN=   -6

 WARNING: aliasing errors must be expected set NGX to  26 to avoid them
 WARNING: aliasing errors must be expected set NGY to  26 to avoid them
 WARNING: aliasing errors must be expected set NGZ to  26 to avoid them
 aliasing errors are usually negligible using standard VASP settings
 and one can safely disregard these warnings

 serial   3D FFT for wavefunctions
 parallel 3D FFT for charge:
    minimum data exchange during FFTs selected (reduces bandwidth)


 total amount of memory used by VASP on root node    40526. kBytes
========================================================================

   base      :      30000. kBytes
   nonl-proj :       9400. kBytes
   fftplans  :        145. kBytes
   grid      :        538. kBytes
   one-center:         77. kBytes
   wavefun   :        366. kBytes
 
     INWAV:  cpu time    0.00: real time    0.00
 Broyden mixing: mesh for mixing (old mesh)
   NGX = 13   NGY = 13   NGZ = 13
  (NGX  = 40   NGY  = 40   NGZ  = 40)
  gives a total of   2197 points

 initial charge density was supplied:
 charge density of overlapping atoms calculated
 number of electron      36.0000000 magnetization 
 keeping initial charge density in first step


--------------------------------------------------------------------------------------------------------


 Maximum index for augmentation-charges          517 (set IRDMAX)


--------------------------------------------------------------------------------------------------------


 First call to EWALD:  gamma=   0.456
 Maximum number of real-space cells 3x 3x 3
 Maximum number of reciprocal cells 3x 3x 3

 FEWALD executed in parallel
    FEWALD:  cpu time    0.00: real time    0.00


----------------------------------------- Iteration    1(   1)  ---------------------------------------


    POTLOK:  cpu time    0.00: real time    0.00
    SETDIJ:  cpu time    0.00: real time    0.00
     EDDAV:  cpu time    0.13: real time    0.13
       DOS:  cpu time    0.00: real time    0.00
    --------------------------------------------
      LOOP:  cpu time    0.14: real time    0.14

 eigenvalue-minimisations  :   880
 total energy-change (2. order) : 0.2120343E+03  (-0.1642236E+04)
 number of electron      36.0000000 magnetization 
 augmentation part       36.0000000 magnetization 

 Free energy of the ion-electron system (eV)
  ---------------------------------------------------
  alpha Z        PSCENC =       166.41898882
  Ewald energy   TEWEN  =     -2276.49556235
  -Hartree energ DENC   =      -673.14746983
  -exchange      EXHF   =         0.00000000
  -V(xc)+E(xc)   XCENC  =       135.76964106
  PAW double counting   =      2297.08385515    -2300.16057493
  entropy T*S    EENTRO =         0.00597735
  eigenvalues    EBANDS =       -89.49328078
  atomic energy  EATOM  =      2952.05274943
  ---------------------------------------------------
  free energy    TOTEN  =       212.03432392 eV

  energy without entropy =      212.02834657  energy(sigma->0) =      212.03233147


--------------------------------------------------------------------------------------------------------




----------------------------------------- Iteration    1(   2)  ---------------------------------------


     EDDAV:  cpu time    0.32: real time    0.32
       DOS:  cpu time    0.00: real time    0.00
    --------------------------------------------
      LOOP:  cpu time    0.33: real time    0.33

 eigenvalue-minimisations  :  1606
 total energy-change (2. order) :-0.2540491E+03  (-0.2501898E+03)
 number of electron      36.0000000 magnetization 
 augmentation part       36.0000000 magnetization 

 Free energy of the ion-electron system (eV)
  ---------------------------------------------------
  alpha Z        PSCENC =       166.41898882
  Ewald energy   TEWEN  =     -2276.49556235
  -Hartree energ DENC   =      -673.14746983
  -exchange      EXHF   =         0.00000000
  -V(xc)+E(xc)   XCENC  =       135.76964106
  PAW double counting   =      2297.08385515    -2300.16057493
  entropy T*S    EENTRO =        -0.00291778
  eigenvalues    EBANDS =      -343.53343775
  atomic energy  EATOM  =      2952.05274943
  ---------------------------------------------------
  free energy    TOTEN  =       -42.01472818 eV

  energy without entropy =      -42.01181040  energy(sigma->0) =      -42.01375559


--------------------------------------------------------------------------------------------------------




----------------------------------------- Iteration    1(   3)  ---------------------------------------


     EDDAV:  cpu time    0.14: real time    0.14
       DOS:  cpu time    0.00: real time    0.00
    --------------------------------------------
      LOOP:  cpu time    0.14: real time    0.14

 eigenvalue-minimisations  :   968
 total energy-change (2. order) :-0.7818059E+01  (-0.6662622E+01)
 number of electron      36.0000000 magnetization 
 augmentation part       36.0000000 magnetization 

 Free energy of the ion-electron system (eV)
  ---------------------------------------------------
  alpha Z        PSCENC =       166.41898882
  Ewald energy   TEWEN  =     -2276.49556235
  -Hartree energ DENC   =      -673.14746983
  -exchange      EXHF   =         0.00000000
  -V(xc)+E(xc)   XCENC  =       135.76964106
  PAW double counting   =      2297.08385515    -2300.16057493
  entropy T*S    EENTRO =         0.00611471
  eigenvalues    EBANDS =      -351.36052896
  atomic energy  EATOM  =      2952.05274943
  ---------------------------------------------------
  free energy    TOTEN  =       -49.83278690 eV

  energy without entropy =      -49.83890161  energy(sigma->0) =      -49.83482514


--------------------------------------------------------------------------------------------------------




----------------------------------------- Iteration    1(   4)  ---------------------------------------


     EDDAV:  cpu time    0.27: real time    0.27
       DOS:  cpu time    0.00: real time    0.00
    --------------------------------------------
      LOOP:  cpu time    0.27: real time    0.27

 eigenvalue-minimisations  :  1628
 total energy-change (2. order) :-0.8668321E-01  (-0.8615563E-01)
 number of electron      36.0000000 magnetization 
 augmentation part       36.0000000 magnetization 

 Free energy of the ion-electron system (eV)
  ---------------------------------------------------
  alpha Z        PSCENC =       166.41898882
  Ewald energy   TEWEN  =     -2276.49556235
  -Hartree energ DENC   =      -673.14746983
  -exchange      EXHF   =         0.00000000
  -V(xc)+E(xc)   XCENC  =       135.76964106
  PAW double counting   =      2297.08385515    -2300.16057493
  entropy T*S    EENTRO =         0.00582996
  eigenvalues    EBANDS =      -351.44692742
  atomic energy  EATOM  =      2952.05274943
  ---------------------------------------------------
  free energy    TOTEN  =       -49.91947011 eV

  energy without entropy =      -49.92530007  energy(sigma->0) =      -49.92141343


--------------------------------------------------------------------------------------------------------




----------------------------------------- Iteration    1(   5)  ---------------------------------------


     EDDAV:  cpu time    0.14: real time    0.14
       DOS:  cpu time    0.00: real time    0.00
    CHARGE:  cpu time    0.01: real time    0.01
    MIXING:  cpu time    0.00: real time    0.00
    --------------------------------------------
      LOOP:  cpu time    0.14: real time    0.14

 eigenvalue-minimisations  :  1012
 total energy-change (2. order) :-0.4188831E-03  (-0.4189181E-03)
 number of electron      36.0000040 magnetization 
 augmentation part       10.9337192 magnetization 

 Broyden mixing:
  rms(total) = 0.30828E+01    rms(broyden)= 0.30825E+01
  rms(prec ) = 0.53581E+01
  weight for this iteration     100.00

 Free energy of the ion-electron system (eV)
  ---------------------------------------------------
  alpha Z        PSCENC =       166.41898882
  Ewald energy   TEWEN  =     -2276.49556235
  -Hartree energ DENC   =      -673.14746983
  -exchange      EXHF   =         0.00000000
  -V(xc)+E(xc)   XCENC  =       135.76964106
  PAW double counting   =      2297.08385515    -2300.16057493
  entropy T*S    EENTRO =         0.00582466
  eigenvalues    EBANDS =      -351.44734099
  atomic energy  EATOM  =      2952.05274943
  ---------------------------------------------------
  free energy    TOTEN  =       -49.91988899 eV

  energy without entropy =      -49.92571365  energy(sigma->0) =      -49.92183054


--------------------------------------------------------------------------------------------------------




----------------------------------------- Iteration    1(   6)  ---------------------------------------


    POTLOK:  cpu time    0.00: real time    0.00
    SETDIJ:  cpu time    0.00: real time    0.00
     EDDAV:  cpu time    0.27: real time    0.27
       DOS:  cpu time    0.00: real time    0.00
    CHARGE:  cpu time    0.01: real time    0.01
    MIXING:  cpu time    0.00: real time    0.00
    --------------------------------------------
      LOOP:  cpu time    0.29: real time    0.29

 eigenvalue-minimisations  :  1650
 total energy-change (2. order) : 0.9292850E+01  (-0.8100263E+01)
 number of electron      35.9999997 magnetization 
 augmentation part       11.1275230 magnetization 

 Broyden mixing:
  rms(total) = 0.10190E+01    rms(broyden)= 0.10182E+01
  rms(prec ) = 0.15894E+01
  weight for this iteration     100.00

 eigenvalues of (default mixing * dielectric matrix)
  average eigenvalue GAMMA=   0.9822
  0.9822

 Free energy of the ion-electron system (eV)
  ---------------------------------------------------
  alpha Z        PSCENC =       166.41898882
  Ewald energy   TEWEN  =     -2276.49556235
  -Hartree energ DENC   =      -693.35794531
  -exchange      EXHF   =         0.00000000
  -V(xc)+E(xc)   XCENC  =       138.28591025
  PAW double counting   =      2773.54927214    -2779.36032511
  entropy T*S    EENTRO =         0.00348027
  eigenvalues    EBANDS =      -321.72360751
  atomic energy  EATOM  =      2952.05274943
  ---------------------------------------------------
  free energy    TOTEN  =       -40.62703938 eV

  energy without entropy =      -40.63051965  energy(sigma->0) =      -40.62819947


--------------------------------------------------------------------------------------------------------




----------------------------------------- Iteration    1(   7)  ---------------------------------------


    POTLOK:  cpu time    0.00: real time    0.00
    SETDIJ:  cpu time    0.00: real time    0.00
     EDDAV:  cpu time    0.15: real time    0.15
       DOS:  cpu time    0.00: real time    0.00
    CHARGE:  cpu time    0.01: real time    0.01
    MIXING:  cpu time    0.00: real time    0.00
    --------------------------------------------
      LOOP:  cpu time    0.16: real time    0.17

 eigenvalue-minimisations  :  1100
 total energy-change (2. order) : 0.4496155E+00  (-0.6914324E+00)
 number of electron      36.0000008 magnetization 
 augmentation part       11.0269137 magnetization 

 Broyden mixing:
  rms(total) = 0.79687E+00    rms(broyden)= 0.79685E+00
  rms(prec ) = 0.10068E+01
  weight for this iteration     100.00

 eigenvalues of (default mixing * dielectric matrix)
  average eigenvalue GAMMA=   1.7557
  0.7408  2.7706

 Free energy of the ion-electron system (eV)
  ---------------------------------------------------
  alpha Z        PSCENC =       166.41898882
  Ewald energy   TEWEN  =     -2276.49556235
  -Hartree energ DENC   =      -684.78061268
  -exchange      EXHF   =         0.00000000
  -V(xc)+E(xc)   XCENC  =       137.50996812
  PAW double counting   =      2999.56675017    -3005.29228348
  entropy T*S    EENTRO =         0.00356297
  eigenvalues    EBANDS =      -329.16098486
  atomic energy  EATOM  =      2952.05274943
  ---------------------------------------------------
  free energy    TOTEN  =       -40.17742386 eV

  energy without entropy =      -40.18098682  energy(sigma->0) =      -40.17861151


--------------------------------------------------------------------------------------------------------




----------------------------------------- Iteration    1(   8)  ---------------------------------------


    POTLOK:  cpu time    0.00: real time    0.00
    SETDIJ:  cpu time    0.00: real time    0.00
     EDDAV:  cpu time    0.24: real time    0.24
       DOS:  cpu time    0.00: real time    0.00
    CHARGE:  cpu time    0.01: real time    0.01
    MIXING:  cpu time    0.00: real time    0.00
    --------------------------------------------
      LOOP:  cpu time    0.26: real time    0.26

 eigenvalue-minimisations  :  1452
 total energy-change (2. order) :-0.1382957E+00  (-0.4790264E+00)
 number of electron      35.9999999 magnetization 
 augmentation part       11.2615719 magnetization 

 Broyden mixing:
  rms(total) = 0.59379E+00    rms(broyden)= 0.59374E+00
  rms(prec ) = 0.10832E+01
  weight for this iteration     100.00

 eigenvalues of (default mixing * dielectric matrix)
  average eigenvalue GAMMA=   1.2001
  2.3432  0.8090  0.4480

 Free energy of the ion-electron system (eV)
  ---------------------------------------------------
  alpha Z        PSCENC =       166.41898882
  Ewald energy   TEWEN  =     -2276.49556235
  -Hartree energ DENC   =      -678.11032468
  -exchange      EXHF   =         0.00000000
  -V(xc)+E(xc)   XCENC  =       137.41884013
  PAW double counting   =      3598.06361040    -3604.97738152
  entropy T*S    EENTRO =         0.00350580
  eigenvalues    EBANDS =      -334.69014560
  atomic energy  EATOM  =      2952.05274943
  ---------------------------------------------------
  free energy    TOTEN  =       -40.31571956 eV

  energy without entropy =      -40.31922536  energy(sigma->0) =      -40.31688816


--------------------------------------------------------------------------------------------------------




----------------------------------------- Iteration    1(   9)  ---------------------------------------


    POTLOK:  cpu time    0.00: real time    0.00
    SETDIJ:  cpu time    0.00: real time    0.00
     EDDAV:  cpu time    0.22: real time    0.22
       DOS:  cpu time    0.00: real time    0.00
    CHARGE:  cpu time    0.01: real time    0.01
    MIXING:  cpu time    0.00: real time    0.00
    --------------------------------------------
      LOOP:  cpu time    0.23: real time    0.23

 eigenvalue-minimisations  :  1452
 total energy-change (2. order) : 0.2242184E+00  (-0.1061559E+00)
 number of electron      36.0000003 magnetization 
 augmentation part       11.1562225 magnetization 

 Broyden mixing:
  rms(total) = 0.18343E+00    rms(broyden)= 0.18342E+00
  rms(prec ) = 0.31830E+00
  weight for this iteration     100.00

 eigenvalues of (default mixing * dielectric matrix)
  average eigenvalue GAMMA=   1.4621
  2.2333  2.2333  0.8428  0.5390

 Free energy of the ion-electron system (eV)
  ---------------------------------------------------
  alpha Z        PSCENC =       166.41898882
  Ewald energy   TEWEN  =     -2276.49556235
  -Hartree energ DENC   =      -680.84938265
  -exchange      EXHF   =         0.00000000
  -V(xc)+E(xc)   XCENC  =       137.46712650
  PAW double counting   =      3510.11564369    -3516.77109583
  entropy T*S    EENTRO =         0.00354234
  eigenvalues    EBANDS =      -332.03351116
  atomic energy  EATOM  =      2952.05274943
  ---------------------------------------------------
  free energy    TOTEN  =       -40.09150120 eV

  energy without entropy =      -40.09504355  energy(sigma->0) =      -40.09268199


--------------------------------------------------------------------------------------------------------




----------------------------------------- Iteration    1(  10)  ---------------------------------------


    POTLOK:  cpu time    0.00: real time    0.00
    SETDIJ:  cpu time    0.00: real time    0.00
     EDDAV:  cpu time    0.21: real time    0.21
       DOS:  cpu time    0.00: real time    0.00
    CHARGE:  cpu time    0.01: real time    0.01
    MIXING:  cpu time    0.00: real time    0.00
    --------------------------------------------
      LOOP:  cpu time    0.23: real time    0.23

 eigenvalue-minimisations  :  1452
 total energy-change (2. order) : 0.2141802E-01  (-0.2807851E-01)
 number of electron      36.0000005 magnetization 
 augmentation part       11.1019147 magnetization 

 Broyden mixing:
  rms(total) = 0.54531E-01    rms(broyden)= 0.54478E-01
  rms(prec ) = 0.80692E-01
  weight for this iteration     100.00

 eigenvalues of (default mixing * dielectric matrix)
  average eigenvalue GAMMA=   1.3475
  2.5494  1.6718  1.0721  0.8895  0.5546

 Free energy of the ion-electron system (eV)
  ---------------------------------------------------
  alpha Z        PSCENC =       166.41898882
  Ewald energy   TEWEN  =     -2276.49556235
  -Hartree energ DENC   =      -684.18167700
  -exchange      EXHF   =         0.00000000
  -V(xc)+E(xc)   XCENC  =       137.60700252
  PAW double counting   =      3473.10299312    -3479.64055223
  entropy T*S    EENTRO =         0.00356744
  eigenvalues    EBANDS =      -328.93759293
  atomic energy  EATOM  =      2952.05274943
  ---------------------------------------------------
  free energy    TOTEN  =       -40.07008319 eV

  energy without entropy =      -40.07365062  energy(sigma->0) =      -40.07127233


--------------------------------------------------------------------------------------------------------




----------------------------------------- Iteration    1(  11)  ---------------------------------------


    POTLOK:  cpu time    0.00: real time    0.00
    SETDIJ:  cpu time    0.00: real time    0.00
     EDDAV:  cpu time    0.19: real time    0.19
       DOS:  cpu time    0.00: real time    0.00
    CHARGE:  cpu time    0.01: real time    0.01
    MIXING:  cpu time    0.00: real time    0.00
    --------------------------------------------
      LOOP:  cpu time    0.20: real time    0.20

 eigenvalue-minimisations  :  1298
 total energy-change (2. order) : 0.7751636E-03  (-0.9346794E-03)
 number of electron      36.0000004 magnetization 
 augmentation part       11.1117715 magnetization 

 Broyden mixing:
  rms(total) = 0.58987E-02    rms(broyden)= 0.58926E-02
  rms(prec ) = 0.95066E-02
  weight for this iteration     100.00

 eigenvalues of (default mixing * dielectric matrix)
  average eigenvalue GAMMA=   1.5385
  2.6376  2.6376  1.5425  0.9726  0.8872  0.5534

 Free energy of the ion-electron system (eV)
  ---------------------------------------------------
  alpha Z        PSCENC =       166.41898882
  Ewald energy   TEWEN  =     -2276.49556235
  -Hartree energ DENC   =      -683.76709326
  -exchange      EXHF   =         0.00000000
  -V(xc)+E(xc)   XCENC  =       137.59555239
  PAW double counting   =      3497.70834975    -3504.28487273
  entropy T*S    EENTRO =         0.00356530
  eigenvalues    EBANDS =      -329.30098539
  atomic energy  EATOM  =      2952.05274943
  ---------------------------------------------------
  free energy    TOTEN  =       -40.06930802 eV

  energy without entropy =      -40.07287333  energy(sigma->0) =      -40.07049646


--------------------------------------------------------------------------------------------------------




----------------------------------------- Iteration    1(  12)  ---------------------------------------


    POTLOK:  cpu time    0.00: real time    0.00
    SETDIJ:  cpu time    0.00: real time    0.00
     EDDAV:  cpu time    0.22: real time    0.22
       DOS:  cpu time    0.00: real time    0.00
    --------------------------------------------
      LOOP:  cpu time    0.23: real time    0.23

 eigenvalue-minimisations  :  1474
 total energy-change (2. order) :-0.4158943E-04  (-0.3192725E-04)
 number of electron      36.0000004 magnetization 
 augmentation part       11.1117715 magnetization 

 Free energy of the ion-electron system (eV)
  ---------------------------------------------------
  alpha Z        PSCENC =       166.41898882
  Ewald energy   TEWEN  =     -2276.49556235
  -Hartree energ DENC   =      -683.85557902
  -exchange      EXHF   =         0.00000000
  -V(xc)+E(xc)   XCENC  =       137.60169433
  PAW double counting   =      3489.89051109    -3496.45192338
  entropy T*S    EENTRO =         0.00356428
  eigenvalues    EBANDS =      -329.23379281
  atomic energy  EATOM  =      2952.05274943
  ---------------------------------------------------
  free energy    TOTEN  =       -40.06934961 eV

  energy without entropy =      -40.07291389  energy(sigma->0) =      -40.07053771


--------------------------------------------------------------------------------------------------------




 average (electrostatic) potential at core
  the test charge radii are     1.0397  1.2658  0.7215
  (the norm of the test charge is              1.0000)
       1 -53.1533       2 -45.6449       3 -70.0964       4 -70.0964       5 -70.0964
 
 
 
 E-fermi :   3.7594     XC(G=0): -11.0043     alpha+bet :-13.2557


 k-point     1 :       0.0000    0.0000    0.0000
  band No.  band energies     occupation 
      1     -29.0411      2.00000
      2     -29.0411      2.00000
      3     -29.0411      2.00000
      4     -16.6116      2.00000
      5     -16.6116      2.00000
      6     -16.6116      2.00000
      7     -13.8746      2.00000
      8     -12.7785      2.00000
      9     -12.7785      2.00000
     10       0.6470      2.00000
     11       0.6470      2.00000
     12       0.6470      2.00000
     13       2.5729      2.00000
     14       2.5729      2.00000
     15       2.5729      2.00000
     16       3.2820      2.00378
     17       3.2820      2.00378
     18       3.2820      2.00378
     19       5.5679     -0.00000
     20       5.5679     -0.00000
     21       5.5679     -0.00000
     22       8.0371     -0.00000

 k-point     2 :       0.1429    0.0000    0.0000
  band No.  band energies     occupation 
      1     -29.0554      2.00000
      2     -29.0405      2.00000
      3     -29.0405      2.00000
      4     -16.6576      2.00000
      5     -16.6096      2.00000
      6     -16.6096      2.00000
      7     -13.7555      2.00000
      8     -12.7736      2.00000
      9     -12.7225      2.00000
     10       0.4174      2.00000
     11       0.6577      2.00000
     12       0.6577      2.00000
     13       2.3010      2.00000
     14       2.3010      2.00000
     15       2.3996      2.00000
     16       2.6493      2.00000
     17       3.1778      2.00031
     18       3.1778      2.00031
     19       5.6000     -0.00000
     20       6.0176     -0.00000
     21       6.0176     -0.00000
     22       8.0549     -0.00000

 k-point     3 :       0.2857    0.0000    0.0000
  band No.  band energies     occupation 
      1     -29.0873      2.00000
      2     -29.0392      2.00000
      3     -29.0392      2.00000
      4     -16.7548      2.00000
      5     -16.6052      2.00000
      6     -16.6052      2.00000
      7     -13.4890      2.00000
      8     -12.7583      2.00000
      9     -12.5896      2.00000
     10      -0.1295      2.00000
     11       0.7131      2.00000
     12       0.7131      2.00000
     13       1.6437      2.00000
     14       1.7394      2.00000
     15       1.7394      2.00000
     16       2.0680      2.00000
     17       3.0631      2.00001
     18       3.0631      2.00001
     19       5.6746     -0.00000
     20       6.8465     -0.00000
     21       6.8465     -0.00000
     22       8.0694     -0.00000

 k-point     4 :       0.4286    0.0000    0.0000
  band No.  band energies     occupation 
      1     -29.1126      2.00000
      2     -29.0382      2.00000
      3     -29.0382      2.00000
      4     -16.8276      2.00000
      5     -16.6017      2.00000
      6     -16.6017      2.00000
      7     -13.2758      2.00000
      8     -12.7452      2.00000
      9     -12.4717      2.00000
     10      -0.6215      2.00000
     11       0.8529      2.00000
     12       0.8529      2.00000
     13       1.0754      2.00000
     14       1.2673      2.00000
     15       1.2673      2.00000
     16       1.8295      2.00000
     17       3.0074      2.00000
     18       3.0074      2.00000
     19       5.7375     -0.00000
     20       7.4386     -0.00000
     21       7.4386     -0.00000
     22       8.0755     -0.00000

 k-point     5 :       0.1429    0.1429    0.0000
  band No.  band energies     occupation 
      1     -29.0549      2.00000
      2     -29.0548      2.00000
      3     -29.0400      2.00000
      4     -16.6665      2.00000
      5     -16.6367      2.00000
      6     -16.6076      2.00000
      7     -13.6456      2.00000
      8     -12.7436      2.00000
      9     -12.6917      2.00000
     10       0.2818      2.00000
     11       0.5574      2.00000
     12       0.6674      2.00000
     13       1.7456      2.00000
     14       2.1107      2.00000
     15       2.5387      2.00000
     16       2.5482      2.00000
     17       2.8152      2.00000
     18       3.0091      2.00000
     19       5.9828     -0.00000
     20       6.0951     -0.00000
     21       6.2664     -0.00000
     22       8.3421     -0.00000

 k-point     6 :       0.2857    0.1429    0.0000
  band No.  band energies     occupation 
      1     -29.0868      2.00000
      2     -29.0536      2.00000
      3     -29.0387      2.00000
      4     -16.7442      2.00000
      5     -16.6357      2.00000
      6     -16.6030      2.00000
      7     -13.4026      2.00000
      8     -12.7198      2.00000
      9     -12.5655      2.00000
     10      -0.1765      2.00000
     11       0.4311      2.00000
     12       0.7155      2.00000
     13       1.0376      2.00000
     14       1.6458      2.00000
     15       1.8462      2.00000
     16       2.5303      2.00000
     17       2.6713      2.00000
     18       2.8233      2.00000
     19       6.0861     -0.00000
     20       6.8597     -0.00000
     21       6.9002     -0.00000
     22       8.4519     -0.00000

 k-point     7 :       0.4286    0.1429    0.0000
  band No.  band energies     occupation 
      1     -29.1121      2.00000
      2     -29.0526      2.00000
      3     -29.0376      2.00000
      4     -16.8094      2.00000
      5     -16.6283      2.00000
      6     -16.5993      2.00000
      7     -13.2144      2.00000
      8     -12.7043      2.00000
      9     -12.4430      2.00000
     10      -0.6275      2.00000
     11       0.2091      2.00000
     12       0.7235      2.00000
     13       0.8471      2.00000
     14       1.2106      2.00000
     15       1.4997      2.00000
     16       2.4621      2.00000
     17       2.5570      2.00000
     18       2.7430      2.00000
     19       6.1360     -0.00000
     20       7.4386     -0.00000
     21       7.4410     -0.00000
     22       8.4712     -0.00000

 k-point     8 :       0.2857    0.2857    0.0000
  band No.  band energies     occupation 
      1     -29.0857      2.00000
      2     -29.0856      2.00000
      3     -29.0374      2.00000
      4     -16.7326      2.00000
      5     -16.6901      2.00000
      6     -16.5980      2.00000
      7     -13.2340      2.00000
      8     -12.6221      2.00000
      9     -12.4875      2.00000
     10      -0.4245      2.00000
     11       0.0667      2.00000
     12       0.2440      2.00000
     13       0.7433      2.00000
     14       1.3837      2.00000
     15       1.8430      2.00000
     16       2.0446      2.00000
     17       2.4820      2.00000
     18       3.0680      2.00001
     19       6.8071     -0.00000
     20       6.9450     -0.00000
     21       7.2027     -0.00000
     22       8.7919     -0.00000

 k-point     9 :       0.4286    0.2857    0.0000
  band No.  band energies     occupation 
      1     -29.1111      2.00000
      2     -29.0848      2.00000
      3     -29.0364      2.00000
      4     -16.7685      2.00000
      5     -16.6869      2.00000
      6     -16.5939      2.00000
      7     -13.1354      2.00000
      8     -12.5399      2.00000
      9     -12.3777      2.00000
     10      -0.6922      2.00000
     11      -0.5021      2.00000
     12       0.0466      2.00000
     13       0.8404      2.00000
     14       1.0777      2.00000
     15       1.6667      2.00000
     16       2.0073      2.00000
     17       2.3162      2.00000
     18       3.2029      2.00060
     19       6.8948     -0.00000
     20       7.4421     -0.00000
     21       7.5849     -0.00000
     22       8.8893     -0.00000

 k-point    10 :       0.4286    0.4286    0.0000
  band No.  band energies     occupation 
      1     -29.1103      2.00000
      2     -29.1103      2.00000
      3     -29.0354      2.00000
      4     -16.7383      2.00000
      5     -16.7303      2.00000
      6     -16.5896      2.00000
      7     -13.1185      2.00000
      8     -12.3495      2.00000
      9     -12.3194      2.00000
     10      -0.9979      2.00000
     11      -0.7343      2.00000
     12      -0.4791      2.00000
     13       0.8600      2.00000
     14       0.9429      2.00000
     15       1.7785      2.00000
     16       1.8232      2.00000
     17       2.0642      2.00000
     18       3.5486      2.05970
     19       7.4331     -0.00000
     20       7.4570     -0.00000
     21       7.8332     -0.00000
     22       9.0162     -0.00000

 k-point    11 :       0.1429    0.1429    0.1429
  band No.  band energies     occupation 
      1     -29.0543      2.00000
      2     -29.0543      2.00000
      3     -29.0543      2.00000
      4     -16.6723      2.00000
      5     -16.6330      2.00000
      6     -16.6330      2.00000
      7     -13.5412      2.00000
      8     -12.6894      2.00000
      9     -12.6894      2.00000
     10       0.1534      2.00000
     11       0.5553      2.00000
     12       0.5553      2.00000
     13       1.6403      2.00000
     14       1.6403      2.00000
     15       2.1655      2.00000
     16       2.7673      2.00000
     17       2.7878      2.00000
     18       2.7878      2.00000
     19       6.2221     -0.00000
     20       6.3301     -0.00000
     21       6.3301     -0.00000
     22       8.9452     -0.00000

 k-point    12 :       0.2857    0.1429    0.1429
  band No.  band energies     occupation 
      1     -29.0862      2.00000
      2     -29.0531      2.00000
      3     -29.0529      2.00000
      4     -16.7343      2.00000
      5     -16.6381      2.00000
      6     -16.6246      2.00000
      7     -13.3096      2.00000
      8     -12.6834      2.00000
      9     -12.5534      2.00000
     10      -0.2278      2.00000
     11       0.3521      2.00000
     12       0.5301      2.00000
     13       0.9677      2.00000
     14       1.1118      2.00000
     15       1.9281      2.00000
     16       2.4948      2.00000
     17       2.7203      2.00000
     18       2.7546      2.00000
     19       6.3504     -0.00000
     20       6.9210     -0.00000
     21       6.9366     -0.00000
     22       8.9837     -0.00000

 k-point    13 :       0.4286    0.1429    0.1429
  band No.  band energies     occupation 
      1     -29.1116      2.00000
      2     -29.0522      2.00000
      3     -29.0518      2.00000
      4     -16.7928      2.00000
      5     -16.6309      2.00000
      6     -16.6179      2.00000
      7     -13.1332      2.00000
      8     -12.6797      2.00000
      9     -12.4231      2.00000
     10      -0.6327      2.00000
     11       0.0893      2.00000
     12       0.4587      2.00000
     13       0.5759      2.00000
     14       0.8724      2.00000
     15       1.9967      2.00000
     16       2.2326      2.00000
     17       2.6188      2.00000
     18       2.6779      2.00000
     19       6.4067     -0.00000
     20       7.4465     -0.00000
     21       7.4739     -0.00000
     22       8.9762     -0.00000

 k-point    14 :       0.2857    0.2857    0.1429
  band No.  band energies     occupation 
      1     -29.0851      2.00000
      2     -29.0850      2.00000
      3     -29.0517      2.00000
      4     -16.7235      2.00000
      5     -16.6831      2.00000
      6     -16.6213      2.00000
      7     -13.1256      2.00000
      8     -12.5975      2.00000
      9     -12.4952      2.00000
     10      -0.4438      2.00000
     11       0.0621      2.00000
     12       0.2632      2.00000
     13       0.4439      2.00000
     14       0.8533      2.00000
     15       1.4746      2.00000
     16       2.5257      2.00000
     17       2.5430      2.00000
     18       3.0988      2.00003
     19       6.9257     -0.00000
     20       7.0349     -0.00000
     21       7.2413     -0.00000
     22       9.4513      0.00000

 k-point    15 :       0.4286    0.2857    0.1429
  band No.  band energies     occupation 
      1     -29.1105      2.00000
      2     -29.0841      2.00000
      3     -29.0507      2.00000
      4     -16.7559      2.00000
      5     -16.6808      2.00000
      6     -16.6147      2.00000
      7     -13.0180      2.00000
      8     -12.5457      2.00000
      9     -12.3774      2.00000
     10      -0.6814      2.00000
     11      -0.4648      2.00000
     12       0.0315      2.00000
     13       0.3581      2.00000
     14       0.6199      2.00000
     15       1.4803      2.00000
     16       2.3761      2.00000
     17       2.5253      2.00000
     18       3.2230      2.00099
     19       7.0222     -0.00000
     20       7.4989     -0.00000
     21       7.6225     -0.00000
     22       9.5164      0.00000

 k-point    16 :       0.4286    0.4286    0.1429
  band No.  band energies     occupation 
      1     -29.1096      2.00000
      2     -29.1096      2.00000
      3     -29.0497      2.00000
      4     -16.7286      2.00000
      5     -16.7211      2.00000
      6     -16.6086      2.00000
      7     -12.9905      2.00000
      8     -12.3621      2.00000
      9     -12.3345      2.00000
     10      -0.9213      2.00000
     11      -0.7228      2.00000
     12      -0.4760      2.00000
     13       0.3570      2.00000
     14       0.4119      2.00000
     15       1.3937      2.00000
     16       2.4113      2.00000
     17       2.4240      2.00000
     18       3.5644      2.04471
     19       7.5169     -0.00000
     20       7.5400     -0.00000
     21       7.8752     -0.00000
     22       9.5520      0.00000

 k-point    17 :       0.2857    0.2857    0.2857
  band No.  band energies     occupation 
      1     -29.0841      2.00000
      2     -29.0835      2.00000
      3     -29.0835      2.00000
      4     -16.7090      2.00000
      5     -16.6672      2.00000
      6     -16.6672      2.00000
      7     -12.9010      2.00000
      8     -12.5122      2.00000
      9     -12.5122      2.00000
     10      -0.5366      2.00000
     11      -0.0052      2.00000
     12      -0.0052      2.00000
     13       0.3293      2.00000
     14       0.3293      2.00000
     15       0.4509      2.00000
     16       2.8621      2.00000
     17       2.8621      2.00000
     18       3.2419      2.00155
     19       7.2790     -0.00000
     20       7.3470     -0.00000
     21       7.3470     -0.00000
     22       9.9325      0.00000

 k-point    18 :       0.4286    0.2857    0.2857
  band No.  band energies     occupation 
      1     -29.1091      2.00000
      2     -29.0829      2.00000
      3     -29.0823      2.00000
      4     -16.7275      2.00000
      5     -16.6734      2.00000
      6     -16.6544      2.00000
      7     -12.7738      2.00000
      8     -12.5251      2.00000
      9     -12.3760      2.00000
     10      -0.6854      2.00000
     11      -0.4300      2.00000
     12      -0.1998      2.00000
     13      -0.1167      2.00000
     14       0.2025      2.00000
     15       0.4581      2.00000
     16       2.9341      2.00000
     17       3.0158      2.00000
     18       3.3496      2.01361
     19       7.3903     -0.00000
     20       7.6826     -0.00000
     21       7.7260     -0.00000
     22       9.9688      0.00000

 k-point    19 :       0.4286    0.4286    0.2857
  band No.  band energies     occupation 
      1     -29.1080      2.00000
      2     -29.1080      2.00000
      3     -29.0814      2.00000
      4     -16.7066      2.00000
      5     -16.7005      2.00000
      6     -16.6509      2.00000
      7     -12.6882      2.00000
      8     -12.3900      2.00000
      9     -12.3679      2.00000
     10      -0.7760      2.00000
     11      -0.6745      2.00000
     12      -0.4705      2.00000
     13      -0.2317      2.00000
     14      -0.1908      2.00000
     15       0.2564      2.00000
     16       3.1445      2.00012
     17       3.1703      2.00025
     18       3.6038      1.96853
     19       7.7608     -0.00000
     20       7.7780     -0.00000
     21       7.9723     -0.00000
     22       9.6691      0.00000

 k-point    20 :       0.4286    0.4286    0.4286
  band No.  band energies     occupation 
      1     -29.1068      2.00000
      2     -29.1067      2.00000
      3     -29.1067      2.00000
      4     -16.6896      2.00000
      5     -16.6836      2.00000
      6     -16.6836      2.00000
      7     -12.4456      2.00000
      8     -12.3955      2.00000
      9     -12.3955      2.00000
     10      -0.8124      2.00000
     11      -0.5874      2.00000
     12      -0.5369      2.00000
     13      -0.5369      2.00000
     14      -0.4490      2.00000
     15      -0.4490      2.00000
     16       3.5720      2.03464
     17       3.5720      2.03464
     18       3.6579      1.74821
     19       8.0323     -0.00000
     20       8.0577     -0.00000
     21       8.0577     -0.00000
     22       9.5622      0.00000


--------------------------------------------------------------------------------------------------------


 soft charge-density along one line, spin component           1
         0         1         2         3         4         5         6         7         8         9
 total charge-density along one line
 
 pseudopotential strength for first ion, spin component:           1
-30.236   0.000  -0.000   7.101  -0.000   0.000   0.000  -0.000
  0.000 -30.236   0.000  -0.000   7.101  -0.000  -0.000   0.000
 -0.000   0.000 -30.236   0.000  -0.000   7.101   0.000  -0.000
  7.101  -0.000   0.000   3.758   0.000  -0.000  -0.000   0.000
 -0.000   7.101  -0.000   0.000   3.758   0.000   0.000  -0.000
  0.000  -0.000   7.101  -0.000   0.000   3.758  -0.000   0.000
  0.000  -0.000   0.000  -0.000   0.000  -0.000  -3.672   0.000
 -0.000   0.000  -0.000   0.000  -0.000   0.000   0.000  -3.672
 -0.000  -0.000  -0.000   0.000   0.000   0.000  -0.000   0.000
 -0.000   0.000  -0.000   0.000  -0.000   0.000   0.000  -0.000
 -0.000  -0.000   0.000   0.000   0.000  -0.000   0.000  -0.000
  0.000  -0.000   0.000  -0.000   0.000  -0.000  -3.854   0.000
 -0.000   0.000  -0.000   0.000  -0.000   0.000   0.000  -3.854
 -0.000  -0.000  -0.000   0.000   0.000   0.000  -0.000   0.000
 -0.000   0.000  -0.000   0.000  -0.000   0.000   0.000  -0.000
 -0.000  -0.000   0.000   0.000   0.000  -0.000   0.000  -0.000
 -0.000   0.000   0.000   0.000  -0.000   0.000   0.000  -0.000
 -0.000   0.000  -0.000  -0.000   0.000  -0.000   0.000  -0.000
 total augmentation occupancy for first ion, spin component:           1
  1.975  -0.000   0.000  -0.067  -0.000  -0.000   0.000   0.000   0.000   0.000   0.000   0.000   0.000   0.000   0.000   0.000
  0.000   1.975   0.000  -0.000  -0.067   0.000   0.000   0.000   0.000   0.000   0.000   0.000   0.000   0.000   0.000   0.000
  0.000  -0.000   1.975  -0.000   0.000  -0.067   0.000   0.000   0.000   0.000   0.000   0.000   0.000   0.000   0.000   0.000
 -0.067   0.000  -0.000   0.337  -0.000   0.000   0.000   0.000   0.000   0.000   0.000   0.000   0.000   0.000   0.000   0.000
  0.000  -0.067   0.000   0.000   0.337   0.000   0.000   0.000   0.000   0.000   0.000   0.000   0.000   0.000   0.000   0.000
 -0.000  -0.000  -0.067  -0.000   0.000   0.337   0.000   0.000   0.000   0.000   0.000   0.000   0.000   0.000   0.000   0.000
  0.000   0.000   0.000   0.000   0.000   0.000   3.655   0.000  -0.000   0.000  -0.000  -2.270  -0.000   0.000   0.000   0.000
  0.000   0.000   0.000   0.000   0.000   0.000   0.000   3.655   0.000   0.000  -0.000   0.000  -2.270  -0.000  -0.000   0.000
  0.000   0.000   0.000   0.000   0.000   0.000   0.000   0.000  13.294  -0.000   0.000   0.000  -0.000  -9.217  -0.000   0.000
  0.000   0.000   0.000   0.000   0.000   0.000  -0.000   0.000   0.000   3.655  -0.000  -0.000   0.000  -0.000  -2.270   0.000
  0.000   0.000   0.000   0.000   0.000   0.000   0.000  -0.000   0.000  -0.000  13.294   0.000  -0.000   0.000   0.000  -9.217
  0.000   0.000   0.000   0.000   0.000   0.000  -2.270   0.000  -0.000   0.000   0.000   1.416   0.000  -0.000   0.000  -0.000
  0.000   0.000   0.000   0.000   0.000   0.000  -0.000  -2.270  -0.000   0.000   0.000   0.000   1.416  -0.000  -0.000  -0.000
  0.000   0.000   0.000   0.000   0.000   0.000   0.000   0.000  -9.217   0.000   0.000  -0.000   0.000   6.460   0.000   0.000
  0.000   0.000   0.000   0.000   0.000   0.000  -0.000   0.000   0.000  -2.270  -0.000  -0.000   0.000  -0.000   1.416   0.000
  0.000   0.000   0.000   0.000   0.000   0.000   0.000  -0.000   0.000  -0.000  -9.217  -0.000   0.000   0.000   0.000   6.460
  0.000   0.000   0.000   0.000   0.000   0.000  -0.000  -0.000  -0.000  -0.000   0.000   0.000   0.000   0.000  -0.000   0.000
  0.000   0.000   0.000   0.000   0.000   0.000   0.000   0.000  -0.000   0.000  -0.000  -0.000   0.000   0.000   0.000   0.000


------------------------ aborting loop because EDIFF is reached ----------------------------------------


    CHARGE:  cpu time    0.01: real time    0.00
    FORLOC:  cpu time    0.00: real time    0.00
    FORNL :  cpu time    0.02: real time    0.02
    STRESS:  cpu time    0.21: real time    0.21
    FORCOR:  cpu time    0.00: real time    0.00
    FORHAR:  cpu time    0.00: real time    0.00
    MIXING:  cpu time    0.00: real time    0.00
    OFIELD:  cpu time    0.00: real time    0.00

  FORCE on cell =-STRESS in cart. coord.  units (eV):
  Direction    XX          YY          ZZ          XY          YZ          ZX
  --------------------------------------------------------------------------------------
  Alpha Z   166.41899   166.41899   166.41899
  Ewald    -758.83256  -758.83256  -758.83256     0.00000     0.00000     0.00000
  Hartree   227.90846   227.90846   227.90846    -0.00000    -0.00000    -0.00000
  E(xc)    -170.13060  -170.13060  -170.13060    -0.00000    -0.00000    -0.00000
  Local     -32.88494   -32.88494   -32.88494    -0.00000     0.00000    -0.00000
  n-local   -91.16458   -88.15966   -84.91380    -0.01571    -0.15375    -0.06377
  augment   133.02290   133.02290   133.02290    -0.00000    -0.00000     0.00000
  Kinetic   511.56738   522.95324   528.07349    -2.63899    -2.61134    -1.74913
  Fock        0.00000     0.00000     0.00000     0.00000     0.00000     0.00000
  -------------------------------------------------------------------------------------
  Total      -1.71241    -1.71241    -1.71241     0.00000    -0.00000    -0.00000
  in kB     -46.81151   -46.81151   -46.81151     0.00000    -0.00000    -0.00000
  external pressure =      -46.81 kB  Pullay stress =        0.00 kB


 VOLUME and BASIS-vectors are now :
 -----------------------------------------------------------------------------
  energy-cutoff  :      400.00
  volume of cell :       58.61
      direct lattice vectors                 reciprocal lattice vectors
     3.884380000  0.000000000  0.000000000     0.257441342  0.000000000  0.000000000
     0.000000000  3.884380000  0.000000000     0.000000000  0.257441342  0.000000000
     0.000000000  0.000000000  3.884380000     0.000000000  0.000000000  0.257441342

  length of vectors
     3.884380000  3.884380000  3.884380000     0.257441342  0.257441342  0.257441342


 FORCES acting on ions
    electron-ion (+dipol)            ewald-force                    non-local-force                 convergence-correction
 -----------------------------------------------------------------------------------------------
   0.119E-13 0.330E-13 -.593E-14   -.784E-14 0.789E-14 0.629E-14   0.000E+00 0.000E+00 0.000E+00   0.332E-13 -.894E-14 -.711E-13
   -.528E-13 0.114E-11 0.207E-12   0.383E-14 0.897E-15 0.355E-14   0.000E+00 0.000E+00 0.000E+00   -.321E-13 0.146E-13 0.336E-13
   0.385E-13 0.103E-13 -.257E-11   0.757E-14 0.529E-17 -.302E-14   0.000E+00 0.000E+00 0.000E+00   -.278E-13 -.585E-14 -.296E-13
   0.789E-14 0.314E-13 0.165E-13   -.137E-14 -.841E-14 -.301E-14   0.000E+00 0.000E+00 0.000E+00   0.222E-13 0.488E-14 -.300E-13
   0.669E-14 0.114E-13 0.594E-13   -.204E-14 -.998E-15 -.429E-14   0.000E+00 0.000E+00 0.000E+00   0.200E-13 -.416E-14 0.535E-13
 -----------------------------------------------------------------------------------------------
   0.122E-13 0.123E-11 -.229E-11   0.156E-15 -.615E-15 -.491E-15   0.000E+00 0.000E+00 0.000E+00   0.154E-13 0.542E-15 -.437E-13
 
 
 POSITION                                       TOTAL-FORCE (eV/Angst)
 -----------------------------------------------------------------------------------
      0.00000      0.00000      0.00000         0.000000      0.000000      0.000000
      1.94219      1.94219      1.94219         0.000000      0.000000      0.000000
      1.94219      0.00000      0.00000         0.000000      0.000000      0.000000
      0.00000      1.94219      0.00000         0.000000      0.000000      0.000000
      0.00000      0.00000      1.94219         0.000000      0.000000      0.000000
 -----------------------------------------------------------------------------------
    total drift:                                0.000000      0.000000     -0.000000


--------------------------------------------------------------------------------------------------------



  FREE ENERGIE OF THE ION-ELECTRON SYSTEM (eV)
  ---------------------------------------------------
  free  energy   TOTEN  =       -40.06934961 eV

  energy  without entropy=      -40.07291389  energy(sigma->0) =      -40.07053771
 


--------------------------------------------------------------------------------------------------------


    POTLOK:  cpu time    0.01: real time    0.01


--------------------------------------------------------------------------------------------------------


 stress matrix after NEB project (eV)
     -1.71241      0.00000     -0.00000
      0.00000     -1.71241     -0.00000
      0.00000     -0.00000     -1.71241
  FORCES: max atom, RMS     0.000000    0.000000
  FORCE total and by dimension    0.000000    0.000000
  Stress total and by dimension    2.965977    1.712408
 writing wavefunctions
     LOOP+:  cpu time    2.95: real time    2.98
    4ORBIT:  cpu time    0.00: real time    0.00

 total amount of memory used by VASP on root node    40526. kBytes
========================================================================

   base      :      30000. kBytes
   nonl-proj :       9400. kBytes
   fftplans  :        145. kBytes
   grid      :        538. kBytes
   one-center:         77. kBytes
   wavefun   :        366. kBytes
 
  
  
 General timing and accounting informations for this job:
 ========================================================
  
                  Total CPU time used (sec):        3.363
                            User time (sec):        3.273
                          System time (sec):        0.090
                         Elapsed time (sec):        3.436
  
                   Maximum memory used (kb):       59604.
                   Average memory used (kb):           0.
  
                          Minor page faults:        11148
                          Major page faults:            0
                 Voluntary context switches:          453
