    5    5 1024    1
  0.1170210E+02  0.3882200E-09  0.3882200E-09  0.3882200E-09  0.5000000E-15
  1.000000000000000E-004
  CAR 
 unknown system                          
     36     10     22
 
  0.0000000E+00  0.0000000E+00  0.0000000E+00  0.8000000E-02
    1      -29.026399
    2      -29.026399
    3      -29.026399
    4      -16.592416
    5      -16.592416
    6      -16.592416
    7      -13.866181
    8      -12.767833
    9      -12.767833
   10        0.659346
   11        0.659346
   12        0.659346
   13        2.585477
   14        2.585477
   15        2.585477
   16        3.298555
   17        3.298555
   18        3.298555
   19        5.581306
   20        5.581306
   21        5.581306
   22        8.058089
 
  0.2000000E+00  0.0000000E+00  0.0000000E+00  0.4800000E-01
    1      -29.052771
    2      -29.025321
    3      -29.025321
    4      -16.676354
    5      -16.588795
    6      -16.588795
    7      -13.646835
    8      -12.757762
    9      -12.662385
   10        0.233849
   11        0.683567
   12        0.683567
   13        2.097037
   14        2.097037
   15        2.237760
   16        2.279267
   17        3.141435
   18        3.141435
   19        5.640799
   20        6.361054
   21        6.361054
   22        8.083987
 
  0.4000000E+00  0.0000000E+00  0.0000000E+00  0.4800000E-01
    1      -29.094925
    2      -29.023563
    3      -29.023563
    4      -16.800896
    5      -16.582937
    6      -16.582937
    7      -13.293100
    8      -12.735584
    9      -12.474980
   10       -0.542377
   11        0.830523
   12        0.830523
   13        1.154049
   14        1.353878
   15        1.353878
   16        1.872407
   17        3.030216
   18        3.030216
   19        5.742742
   20        7.379473
   21        7.379473
   22        8.096959
 
  0.2000000E+00  0.2000000E+00  0.0000000E+00  0.9600000E-01
    1      -29.051837
    2      -29.051734
    3      -29.024275
    4      -16.681273
    5      -16.638227
    6      -16.584889
    7      -13.460786
    8      -12.700431
    9      -12.604611
   10        0.018059
   11        0.428370
   12        0.701057
   13        1.154942
   14        1.815083
   15        2.192358
   16        2.362706
   17        2.819675
   18        2.828288
   19        6.315571
   20        6.464952
   21        6.674760
   22        8.559902
 
  0.4000000E+00  0.2000000E+00  0.0000000E+00  0.1920000E+00
    1      -29.094088
    2      -29.050185
    3      -29.022559
    4      -16.768733
    5      -16.632957
    6      -16.578560
    7      -13.184062
    8      -12.647983
    9      -12.423746
   10       -0.568386
   11       -0.055435
   12        0.521411
   13        0.822700
   14        1.238959
   15        1.614245
   16        2.302708
   17        2.592664
   18        2.825438
   19        6.443935
   20        7.383083
   21        7.421784
   22        8.700764
 
  0.4000000E+00  0.4000000E+00  0.0000000E+00  0.9600000E-01
    1      -29.092734
    2      -29.092695
    3      -29.020907
    4      -16.721777
    5      -16.706709
    6      -16.571483
    7      -13.110758
    8      -12.383953
    9      -12.328593
   10       -0.904055
   11       -0.608556
   12       -0.394979
   13        0.848177
   14        1.005907
   15        1.776829
   16        1.858511
   17        2.139861
   18        3.489176
   19        7.368096
   20        7.412586
   21        7.768414
   22        9.017790
 
  0.2000000E+00  0.2000000E+00  0.2000000E+00  0.6400000E-01
    1      -29.050877
    2      -29.050670
    3      -29.050670
    4      -16.679900
    5      -16.628933
    6      -16.628933
    7      -13.278182
    8      -12.607274
    9      -12.607274
   10       -0.157003
   11        0.398975
   12        0.398975
   13        1.091236
   14        1.091236
   15        1.478944
   16        2.688687
   17        2.688687
   18        2.948756
   19        6.667162
   20        6.769141
   21        6.769142
   22        9.517720
 
  0.4000000E+00  0.2000000E+00  0.2000000E+00  0.1920000E+00
    1      -29.093073
    2      -29.049354
    3      -29.048773
    4      -16.742121
    5      -16.632844
    6      -16.613768
    7      -13.013652
    8      -12.611380
    9      -12.402557
   10       -0.587591
   11       -0.123326
   12        0.198062
   13        0.335272
   14        0.695487
   15        1.391937
   16        2.580099
   17        2.671210
   18        2.985978
   19        6.826788
   20        7.459744
   21        7.491131
   22        9.655803
 
  0.4000000E+00  0.4000000E+00  0.2000000E+00  0.1920000E+00
    1      -29.091453
    2      -29.091411
    3      -29.047228
    4      -16.703268
    5      -16.690277
    6      -16.607493
    7      -12.874531
    8      -12.399768
    9      -12.353997
   10       -0.792669
   11       -0.572342
   12       -0.389325
   13        0.115612
   14        0.205553
   15        0.967305
   16        2.722981
   17        2.761155
   18        3.520994
   19        7.537408
   20        7.574118
   21        7.844218
   22        9.773667
 
  0.4000000E+00  0.4000000E+00  0.4000000E+00  0.6400000E-01
    1      -29.089579
    2      -29.089264
    3      -29.089264
    4      -16.674890
    5      -16.663256
    6      -16.663256
    7      -12.492314
    8      -12.396132
    9      -12.396132
   10       -0.734174
   11       -0.495495
   12       -0.457962
   13       -0.457962
   14       -0.345039
   15       -0.345039
   16        3.460295
   17        3.460295
   18        3.615283
   19        7.941961
   20        7.980955
   21        7.980955
   22        9.682344
