    5    5    1    1
  0.1172182E+02  0.3884380E-09  0.3884380E-09  0.3884380E-09  0.5000000E-15
  1.000000000000000E-004
  CAR 
 unknown system                          
     36      4     22
 
  0.0000000E+00  0.0000000E+00  0.0000000E+00  0.1250000E+00
    1      -29.440673
    2      -29.440673
    3      -29.440673
    4      -16.595443
    5      -16.595443
    6      -16.595443
    7      -13.790765
    8      -12.687474
    9      -12.687473
   10        0.704661
   11        0.704661
   12        0.704661
   13        2.666901
   14        2.666901
   15        2.666901
   16        3.380639
   17        3.380639
   18        3.380639
   19        5.285373
   20        5.285373
   21        5.285373
   22        7.715996
 
  0.5000000E+00  0.0000000E+00  0.0000000E+00  0.3750000E+00
    1      -29.510363
    2      -29.437742
    3      -29.437742
    4      -16.818254
    5      -16.585010
    6      -16.585010
    7      -13.158948
    8      -12.651867
    9      -12.369619
   10       -0.705709
   11        0.971495
   12        0.971495
   13        1.085554
   14        1.183080
   15        1.183080
   16        1.877584
   17        3.098163
   18        3.098163
   19        5.443462
   20        7.272546
   21        7.272546
   22        7.742109
 
  0.5000000E+00  0.5000000E+00  0.0000000E+00  0.3750000E+00
    1      -29.508131
    2      -29.508131
    3      -29.435012
    4      -16.719172
    5      -16.719172
    6      -16.572259
    7      -13.030474
    8      -12.211076
    9      -12.211076
   10       -1.078278
   11       -0.835658
   12       -0.592355
   13        0.905092
   14        0.905092
   15        1.882982
   16        1.882982
   17        2.064862
   18        3.733348
   19        7.261261
   20        7.261261
   21        7.639467
   22        8.759338
 
  0.5000000E+00  0.5000000E+00  0.5000000E+00  0.1250000E+00
    1      -29.504503
    2      -29.504503
    3      -29.504503
    4      -16.669056
    5      -16.669056
    6      -16.669056
    7      -12.296247
    8      -12.296247
    9      -12.296247
   10       -0.895026
   11       -0.595794
   12       -0.595794
   13       -0.595794
   14       -0.576653
   15       -0.576653
   16        3.825805
   17        3.825805
   18        3.825805
   19        7.869919
   20        7.869919
   21        7.869920
   22        9.443564
