    5    5    1    1
  0.1170210E+02  0.3882200E-09  0.3882200E-09  0.3882200E-09  0.5000000E-15
  1.000000000000000E-004
  CAR 
 unknown system                          
     36      4     22
 
  0.0000000E+00  0.0000000E+00  0.0000000E+00  0.1250000E+00
    1      -29.421411
    2      -29.421411
    3      -29.421411
    4      -16.576295
    5      -16.576295
    6      -16.576295
    7      -13.783937
    8      -12.678548
    9      -12.678548
   10        0.715772
   11        0.715772
   12        0.715772
   13        2.677884
   14        2.677884
   15        2.677884
   16        3.395325
   17        3.395325
   18        3.395325
   19        5.302043
   20        5.302043
   21        5.302043
   22        7.741097
 
  0.5000000E+00  0.0000000E+00  0.0000000E+00  0.3750000E+00
    1      -29.491673
    2      -29.418452
    3      -29.418452
    4      -16.801353
    5      -16.565785
    6      -16.565785
    7      -13.148899
    8      -12.642725
    9      -12.357784
   10       -0.697600
   11        0.982108
   12        0.982108
   13        1.095346
   14        1.191690
   15        1.191690
   16        1.886383
   17        3.112078
   18        3.112078
   19        5.460927
   20        7.294880
   21        7.294880
   22        7.768023
 
  0.5000000E+00  0.5000000E+00  0.0000000E+00  0.3750000E+00
    1      -29.489424
    2      -29.489424
    3      -29.415696
    4      -16.701035
    5      -16.701035
    6      -16.552928
    7      -13.022138
    8      -12.198046
    9      -12.198046
   10       -1.073837
   11       -0.826685
   12       -0.585095
   13        0.912567
   14        0.912567
   15        1.893597
   16        1.893597
   17        2.079820
   18        3.746893
   19        7.283636
   20        7.283636
   21        7.662128
   22        8.787747
 
  0.5000000E+00  0.5000000E+00  0.5000000E+00  0.1250000E+00
    1      -29.485759
    2      -29.485759
    3      -29.485759
    4      -16.650445
    5      -16.650445
    6      -16.650445
    7      -12.284104
    8      -12.284104
    9      -12.284104
   10       -0.884726
   11       -0.589736
   12       -0.589736
   13       -0.589736
   14       -0.569324
   15       -0.569324
   16        3.839697
   17        3.839697
   18        3.839697
   19        7.893995
   20        7.893995
   21        7.893995
   22        9.462804
