    5    5 1024    1
  0.1170210E+02  0.3882200E-09  0.3882200E-09  0.3882200E-09  0.5000000E-15
  1.000000000000000E-004
  CAR 
 unknown system                          
     36     63     22
 
  0.0000000E+00  0.0000000E+00  0.0000000E+00  0.8000000E-02
    1      -28.990181
    2      -28.985032
    3      -28.978808
    4      -16.438087
    5      -16.400081
    6      -16.386911
    7      -13.887108
    8      -12.800627
    9      -12.782042
   10        0.552193
   11        0.562608
   12        0.569500
   13        2.168788
   14        2.211699
   15        2.506753
   16        2.827500
   17        2.964001
   18        3.029051
   19        5.902869
   20        6.021535
   21        6.215585
   22        8.299076
 
  0.2000000E+00  0.0000000E+00  0.0000000E+00  0.1600000E-01
    1      -29.006065
    2      -28.989039
    3      -28.982793
    4      -16.503013
    5      -16.415663
    6      -16.391822
    7      -13.664401
    8      -12.782976
    9      -12.696772
   10        0.129946
   11        0.587267
   12        0.604956
   13        1.731477
   14        1.898897
   15        2.169436
   16        2.258437
   17        2.801567
   18        2.903237
   19        6.148874
   20        6.410319
   21        6.570854
   22        8.366576
 
  0.4000000E+00  0.0000000E+00  0.0000000E+00  0.1600000E-01
    1      -29.047457
    2      -28.987332
    3      -28.981198
    4      -16.644402
    5      -16.410221
    6      -16.378473
    7      -13.298796
    8      -12.777645
    9      -12.528103
   10       -0.572597
   11        0.730923
   12        0.753140
   13        1.049160
   14        1.298892
   15        1.441878
   16        1.766478
   17        2.645425
   18        2.805168
   19        6.256909
   20        7.205416
   21        7.495477
   22        8.359349
 
  0.0000000E+00  0.2000000E+00  0.0000000E+00  0.1600000E-01
    1      -29.012582
    2      -28.987334
    3      -28.978088
    4      -16.516978
    5      -16.408496
    6      -16.381857
    7      -13.663946
    8      -12.790137
    9      -12.690611
   10        0.127276
   11        0.566896
   12        0.589863
   13        1.753621
   14        1.868084
   15        2.132295
   16        2.274054
   17        2.819848
   18        2.929848
   19        6.031111
   20        6.505264
   21        6.620056
   22        8.323805
 
  0.2000000E+00  0.2000000E+00  0.0000000E+00  0.1600000E-01
    1      -29.011788
    2      -29.004772
    3      -28.985561
    4      -16.521791
    5      -16.446080
    6      -16.397025
    7      -13.479204
    8      -12.733738
    9      -12.640129
   10       -0.052977
   11        0.346931
   12        0.592196
   13        1.026410
   14        1.624252
   15        1.960402
   16        2.324785
   17        2.674247
   18        2.756388
   19        6.467702
   20        6.598824
   21        6.802118
   22        8.787288
 
  0.4000000E+00  0.2000000E+00  0.0000000E+00  0.1600000E-01
    1      -29.046660
    2      -29.009906
    3      -28.984024
    4      -16.609204
    5      -16.454968
    6      -16.383980
    7      -13.197530
    8      -12.695131
    9      -12.475832
   10       -0.589047
   11       -0.091885
   12        0.441528
   13        0.768125
   14        1.199895
   15        1.540781
   16        2.096684
   17        2.585516
   18        2.700350
   19        6.632189
   20        7.285013
   21        7.501608
   22        8.872385
 
 -0.4000000E+00  0.2000000E+00  0.0000000E+00  0.1600000E-01
    1      -29.046715
    2      -29.009856
    3      -28.984018
    4      -16.607826
    5      -16.455775
    6      -16.383783
    7      -13.198780
    8      -12.693540
    9      -12.477724
   10       -0.625354
   11       -0.144374
   12        0.536413
   13        0.779152
   14        1.213574
   15        1.558857
   16        2.082803
   17        2.583515
   18        2.696075
   19        6.610396
   20        7.259617
   21        7.524276
   22        8.866441
 
 -0.2000000E+00  0.2000000E+00  0.0000000E+00  0.1600000E-01
    1      -29.012206
    2      -29.004381
    3      -28.985530
    4      -16.518022
    5      -16.449067
    6      -16.396509
    7      -13.479842
    8      -12.732374
    9      -12.643487
   10       -0.087210
   11        0.215519
   12        0.599988
   13        1.245987
   14        1.649261
   15        1.997314
   16        2.241388
   17        2.662161
   18        2.792974
   19        6.353976
   20        6.613014
   21        6.846450
   22        8.771572
 
  0.0000000E+00  0.4000000E+00  0.0000000E+00  0.1600000E-01
    1      -29.054141
    2      -28.985746
    3      -28.976384
    4      -16.652822
    5      -16.400278
    6      -16.373184
    7      -13.296608
    8      -12.778932
    9      -12.528244
   10       -0.603733
   11        0.664347
   12        0.692823
   13        1.100953
   14        1.294494
   15        1.410099
   16        1.758659
   17        2.716647
   18        2.855611
   19        6.119797
   20        7.323313
   21        7.518723
   22        8.317838
 
  0.2000000E+00  0.4000000E+00  0.0000000E+00  0.1600000E-01
    1      -29.053349
    2      -29.003343
    3      -28.984071
    4      -16.616807
    5      -16.441476
    6      -16.385955
    7      -13.197410
    8      -12.691841
    9      -12.478157
   10       -0.612465
   11       -0.136974
   12        0.467655
   13        0.730424
   14        1.219037
   15        1.535512
   16        2.103420
   17        2.627448
   18        2.692807
   19        6.535650
   20        7.377315
   21        7.511323
   22        8.851025
 
  0.4000000E+00  0.4000000E+00  0.0000000E+00  0.1600000E-01
    1      -29.052278
    2      -29.044963
    3      -28.982592
    4      -16.566187
    5      -16.526920
    6      -16.375676
    7      -13.131383
    8      -12.453779
    9      -12.376799
   10       -0.902018
   11       -0.665900
   12       -0.336571
   13        0.748675
   14        0.967400
   15        1.662131
   16        1.805250
   17        2.200454
   18        3.355781
   19        7.370708
   20        7.450898
   21        7.782232
   22        9.009649
 
 -0.4000000E+00  0.4000000E+00  0.0000000E+00  0.1600000E-01
    1      -29.052448
    2      -29.044789
    3      -28.982590
    4      -16.563194
    5      -16.529509
    6      -16.375601
    7      -13.132822
    8      -12.446797
    9      -12.383219
   10       -0.936816
   11       -0.706299
   12       -0.254271
   13        0.740065
   14        0.979347
   15        1.704363
   16        1.768564
   17        2.204704
   18        3.349778
   19        7.333263
   20        7.461338
   21        7.799044
   22        9.005672
 
 -0.2000000E+00  0.4000000E+00  0.0000000E+00  0.1600000E-01
    1      -29.053389
    2      -29.003309
    3      -28.984063
    4      -16.615576
    5      -16.442167
    6      -16.385719
    7      -13.198762
    8      -12.689953
    9      -12.480253
   10       -0.650168
   11       -0.177175
   12        0.547466
   13        0.745768
   14        1.233044
   15        1.551251
   16        2.089517
   17        2.619582
   18        2.696587
   19        6.515719
   20        7.342682
   21        7.540662
   22        8.846465
 
  0.0000000E+00  0.0000000E+00  0.2000000E+00  0.1600000E-01
    1      -29.015030
    2      -28.984959
    3      -28.978069
    4      -16.522914
    5      -16.400898
    6      -16.381960
    7      -13.664076
    8      -12.794439
    9      -12.686390
   10        0.127461
   11        0.561244
   12        0.579567
   13        1.760791
   14        1.857429
   15        2.132819
   16        2.255905
   17        2.840707
   18        2.931778
   19        5.978493
   20        6.547318
   21        6.647637
   22        8.309604
 
  0.2000000E+00  0.0000000E+00  0.2000000E+00  0.1600000E-01
    1      -29.014259
    2      -29.004614
    3      -28.983295
    4      -16.525970
    5      -16.446616
    6      -16.391086
    7      -13.478304
    8      -12.738375
    9      -12.636282
   10       -0.050897
   11        0.348242
   12        0.585378
   13        1.016028
   14        1.617451
   15        1.976306
   16        2.313920
   17        2.682664
   18        2.734723
   19        6.462801
   20        6.627419
   21        6.809306
   22        8.776484
 
  0.4000000E+00  0.0000000E+00  0.2000000E+00  0.1600000E-01
    1      -29.046659
    2      -29.012276
    3      -28.981691
    4      -16.609830
    5      -16.458260
    6      -16.379177
    7      -13.193833
    8      -12.698418
    9      -12.476051
   10       -0.587858
   11       -0.087276
   12        0.452810
   13        0.748836
   14        1.178919
   15        1.541413
   16        2.111056
   17        2.555824
   18        2.714124
   19        6.661766
   20        7.281152
   21        7.499362
   22        8.874022
 
 -0.4000000E+00  0.0000000E+00  0.2000000E+00  0.1600000E-01
    1      -29.046731
    2      -29.012209
    3      -28.981687
    4      -16.608180
    5      -16.459220
    6      -16.379035
    7      -13.194796
    8      -12.696770
    9      -12.478482
   10       -0.629033
   11       -0.144410
   12        0.556514
   13        0.762004
   14        1.195138
   15        1.562603
   16        2.098092
   17        2.554663
   18        2.704160
   19        6.638175
   20        7.257313
   21        7.519795
   22        8.865704
 
 -0.2000000E+00  0.0000000E+00  0.2000000E+00  0.1600000E-01
    1      -29.014644
    2      -29.004246
    3      -28.983276
    4      -16.521640
    5      -16.449891
    6      -16.390735
    7      -13.478471
    8      -12.737115
    9      -12.640335
   10       -0.091492
   11        0.206619
   12        0.589179
   13        1.264063
   14        1.645591
   15        2.017157
   16        2.234543
   17        2.659787
   18        2.770147
   19        6.355414
   20        6.632979
   21        6.849308
   22        8.757098
 
  0.0000000E+00  0.2000000E+00  0.2000000E+00  0.1600000E-01
    1      -29.015487
    2      -29.009493
    3      -28.977285
    4      -16.534504
    5      -16.449299
    6      -16.377582
    7      -13.475723
    8      -12.747100
    9      -12.629541
   10       -0.047399
   11        0.383073
   12        0.570879
   13        0.956165
   14        1.601926
   15        2.017222
   16        2.286132
   17        2.672902
   18        2.714046
   19        6.550342
   20        6.603149
   21        6.819359
   22        8.749885
 
  0.2000000E+00  0.2000000E+00  0.2000000E+00  0.1600000E-01
    1      -29.014367
    2      -29.009184
    3      -29.002759
    4      -16.531942
    5      -16.435883
    6      -16.434558
    7      -13.298606
    8      -12.646916
    9      -12.640475
   10       -0.205827
   11        0.323467
   12        0.376122
   13        0.950242
   14        0.963663
   15        1.356034
   16        2.517290
   17        2.534783
   18        2.873918
   19        6.795914
   20        6.866312
   21        6.894623
   22        9.686482
 
  0.4000000E+00  0.2000000E+00  0.2000000E+00  0.1600000E-01
    1      -29.045675
    2      -29.012432
    3      -29.006675
    4      -16.582792
    5      -16.464355
    6      -16.412995
    7      -13.030982
    8      -12.661354
    9      -12.453145
   10       -0.608287
   11       -0.104805
   12        0.119349
   13        0.275541
   14        0.711221
   15        1.310444
   16        2.460563
   17        2.489427
   18        2.902149
   19        6.976812
   20        7.386455
   21        7.553293
   22        9.717351
 
 -0.4000000E+00  0.2000000E+00  0.2000000E+00  0.1600000E-01
    1      -29.045843
    2      -29.012421
    3      -29.006527
    4      -16.579582
    5      -16.466059
    6      -16.412438
    7      -13.032849
    8      -12.662749
    9      -12.454045
   10       -0.665891
   11       -0.185413
   12        0.074423
   13        0.390859
   14        0.789182
   15        1.365446
   16        2.497598
   17        2.526060
   18        2.827422
   19        6.957067
   20        7.334105
   21        7.582621
   22        9.721706
 
 -0.2000000E+00  0.2000000E+00  0.2000000E+00  0.1600000E-01
    1      -29.014451
    2      -29.010352
    3      -29.001517
    4      -16.526355
    5      -16.437683
    6      -16.434853
    7      -13.300514
    8      -12.649723
    9      -12.642702
   10       -0.237868
   11        0.163733
   12        0.279804
   13        0.952859
   14        1.143807
   15        1.590462
   16        2.556767
   17        2.662178
   18        2.725181
   19        6.585215
   20        6.912265
   21        6.931000
   22        9.457803
 
  0.0000000E+00  0.4000000E+00  0.2000000E+00  0.1600000E-01
    1      -29.053361
    2      -29.011907
    3      -28.975608
    4      -16.619245
    5      -16.453115
    6      -16.369286
    7      -13.183590
    8      -12.706651
    9      -12.476539
   10       -0.604262
   11       -0.120551
   12        0.497435
   13        0.672800
   14        1.151469
   15        1.541157
   16        2.162265
   17        2.517030
   18        2.728492
   19        6.639289
   20        7.363065
   21        7.501995
   22        8.857026
 
  0.2000000E+00  0.4000000E+00  0.2000000E+00  0.1600000E-01
    1      -29.052373
    2      -29.010965
    3      -29.001602
    4      -16.590978
    5      -16.450921
    6      -16.414377
    7      -13.027478
    8      -12.658664
    9      -12.459070
   10       -0.615257
   11       -0.161087
   12        0.077811
   13        0.301454
   14        0.729579
   15        1.333226
   16        2.470825
   17        2.494281
   18        2.900026
   19        6.928233
   20        7.454833
   21        7.537866
   22        9.700126
 
  0.4000000E+00  0.4000000E+00  0.2000000E+00  0.1600000E-01
    1      -29.050978
    2      -29.043716
    3      -29.008701
    4      -16.550353
    5      -16.508557
    6      -16.414920
    7      -12.903652
    8      -12.461176
    9      -12.405072
   10       -0.817785
   11       -0.602072
   12       -0.313704
   13        0.066438
   14        0.170636
   15        1.026722
   16        2.559846
   17        2.664600
   18        3.393728
   19        7.525221
   20        7.577010
   21        7.844394
   22        9.792977
 
 -0.4000000E+00  0.4000000E+00  0.2000000E+00  0.1600000E-01
    1      -29.051160
    2      -29.043671
    3      -29.008568
    4      -16.546143
    5      -16.510768
    6      -16.414806
    7      -12.907928
    8      -12.458012
    9      -12.408024
   10       -0.838916
   11       -0.683769
   12       -0.252706
   13        0.050110
   14        0.191762
   15        1.091941
   16        2.630210
   17        2.652081
   18        3.369896
   19        7.457108
   20        7.593598
   21        7.861819
   22        9.681850
 
 -0.2000000E+00  0.4000000E+00  0.2000000E+00  0.1600000E-01
    1      -29.052406
    2      -29.011748
    3      -29.000808
    4      -16.588093
    5      -16.449136
    6      -16.415551
    7      -13.034129
    8      -12.655046
    9      -12.462841
   10       -0.636476
   11       -0.262865
   12        0.092776
   13        0.331716
   14        0.675627
   15        1.507501
   16        2.518900
   17        2.634473
   18        2.803257
   19        6.801692
   20        7.433263
   21        7.564910
   22        9.664499
 
  0.0000000E+00 -0.4000000E+00  0.2000000E+00  0.1600000E-01
    1      -29.053462
    2      -29.011811
    3      -28.975605
    4      -16.616640
    5      -16.454549
    6      -16.369223
    7      -13.183733
    8      -12.704336
    9      -12.481550
   10       -0.670597
   11       -0.181181
   12        0.605341
   13        0.718868
   14        1.178834
   15        1.573581
   16        2.151090
   17        2.514555
   18        2.704144
   19        6.609266
   20        7.336329
   21        7.518304
   22        8.840504
 
  0.2000000E+00 -0.4000000E+00  0.2000000E+00  0.1600000E-01
    1      -29.052566
    2      -29.010874
    3      -29.001515
    4      -16.587085
    5      -16.452889
    6      -16.413619
    7      -13.028661
    8      -12.660819
    9      -12.461329
   10       -0.693207
   11       -0.235512
   12        0.028409
   13        0.423175
   14        0.828513
   15        1.402692
   16        2.513505
   17        2.537728
   18        2.809087
   19        6.904498
   20        7.386436
   21        7.572850
   22        9.700608
 
  0.4000000E+00 -0.4000000E+00  0.2000000E+00  0.1600000E-01
    1      -29.051351
    2      -29.043527
    3      -29.008529
    4      -16.545660
    5      -16.510082
    6      -16.415019
    7      -12.909286
    8      -12.457206
    9      -12.409417
   10       -0.839561
   11       -0.691126
   12       -0.265697
   13        0.033014
   14        0.209387
   15        1.125849
   16        2.630060
   17        2.670371
   18        3.364273
   19        7.461674
   20        7.571602
   21        7.861141
   22        9.653824
 
 -0.4000000E+00 -0.4000000E+00  0.2000000E+00  0.1600000E-01
    1      -29.051109
    2      -29.043903
    3      -29.008415
    4      -16.546636
    5      -16.507818
    6      -16.415381
    7      -12.910614
    8      -12.460051
    9      -12.407075
   10       -0.815988
   11       -0.642895
   12       -0.377958
   13       -0.018166
   14        0.264534
   15        1.165798
   16        2.660109
   17        2.673576
   18        3.358915
   19        7.421165
   20        7.602921
   21        7.845058
   22        9.588270
 
 -0.2000000E+00 -0.4000000E+00  0.2000000E+00  0.1600000E-01
    1      -29.052489
    2      -29.011631
    3      -29.000849
    4      -16.586759
    5      -16.449908
    6      -16.415383
    7      -13.032951
    8      -12.656648
    9      -12.464123
   10       -0.660607
   11       -0.273272
   12        0.079306
   13        0.337420
   14        0.731744
   15        1.523191
   16        2.530836
   17        2.645299
   18        2.774461
   19        6.795110
   20        7.440790
   21        7.546687
   22        9.631787
 
  0.0000000E+00 -0.2000000E+00  0.2000000E+00  0.1600000E-01
    1      -29.016467
    2      -29.008521
    3      -28.977277
    4      -16.527177
    5      -16.454706
    6      -16.377445
    7      -13.474141
    8      -12.746250
    9      -12.636717
   10       -0.118957
   11        0.184688
   12        0.565053
   13        1.340195
   14        1.642554
   15        2.083101
   16        2.214234
   17        2.642843
   18        2.709266
   19        6.383309
   20        6.660362
   21        6.834307
   22        8.714592
 
  0.2000000E+00 -0.2000000E+00  0.2000000E+00  0.1600000E-01
    1      -29.015558
    2      -29.008961
    3      -29.001808
    4      -16.523730
    5      -16.441346
    6      -16.432785
    7      -13.299527
    8      -12.651760
    9      -12.643987
   10       -0.249692
   11        0.133947
   12        0.245619
   13        0.971332
   14        1.193437
   15        1.653381
   16        2.575638
   17        2.668607
   18        2.687703
   19        6.574509
   20        6.880139
   21        6.933327
   22        9.381256
 
  0.4000000E+00 -0.2000000E+00  0.2000000E+00  0.1600000E-01
    1      -29.045718
    2      -29.014117
    3      -29.004984
    4      -16.578817
    5      -16.461454
    6      -16.414797
    7      -13.040200
    8      -12.656174
    9      -12.459078
   10       -0.624753
   11       -0.241906
   12        0.118583
   13        0.311140
   14        0.638333
   15        1.568838
   16        2.531876
   17        2.662580
   18        2.781917
   19        6.792411
   20        7.382840
   21        7.560582
   22        9.639747
 
 -0.4000000E+00 -0.2000000E+00  0.2000000E+00  0.1600000E-01
    1      -29.045740
    2      -29.014080
    3      -29.005001
    4      -16.578552
    5      -16.461598
    6      -16.414800
    7      -13.039935
    8      -12.656466
    9      -12.459329
   10       -0.628958
   11       -0.243667
   12        0.114898
   13        0.310278
   14        0.651670
   15        1.571428
   16        2.533979
   17        2.663795
   18        2.777176
   19        6.791136
   20        7.384207
   21        7.557407
   22        9.631067
 
 -0.2000000E+00 -0.2000000E+00  0.2000000E+00  0.1600000E-01
    1      -29.015755
    2      -29.008687
    3      -29.001887
    4      -16.523183
    5      -16.441403
    6      -16.433075
    7      -13.299239
    8      -12.651189
    9      -12.645303
   10       -0.252545
   11        0.134756
   12        0.230996
   13        0.975333
   14        1.205906
   15        1.665914
   16        2.576584
   17        2.670191
   18        2.681737
   19        6.573043
   20        6.878050
   21        6.928083
   22        9.367817
 
  0.0000000E+00  0.0000000E+00  0.4000000E+00  0.1600000E-01
    1      -29.056724
    2      -28.983310
    3      -28.976375
    4      -16.656322
    5      -16.393053
    6      -16.373473
    7      -13.297126
    8      -12.781379
    9      -12.524786
   10       -0.617217
   11        0.641749
   12        0.663910
   13        1.116848
   14        1.298322
   15        1.399657
   16        1.746635
   17        2.750644
   18        2.867044
   19        6.066653
   20        7.365409
   21        7.541896
   22        8.303068
 
  0.2000000E+00  0.0000000E+00  0.4000000E+00  0.1600000E-01
    1      -29.055929
    2      -29.003212
    3      -28.981743
    4      -16.620419
    5      -16.439639
    6      -16.381297
    7      -13.194523
    8      -12.696271
    9      -12.475810
   10       -0.621304
   11       -0.152249
   12        0.486569
   13        0.697020
   14        1.206735
   15        1.536712
   16        2.120212
   17        2.615021
   18        2.696488
   19        6.527683
   20        7.403323
   21        7.524935
   22        8.845451
 
  0.4000000E+00  0.0000000E+00  0.4000000E+00  0.1600000E-01
    1      -29.054840
    2      -29.044887
    3      -28.980199
    4      -16.569482
    5      -16.526131
    6      -16.371021
    7      -13.124558
    8      -12.460308
    9      -12.376116
   10       -0.906619
   11       -0.664516
   12       -0.332388
   13        0.718379
   14        0.945618
   15        1.666964
   16        1.807741
   17        2.194238
   18        3.371663
   19        7.370156
   20        7.477916
   21        7.776559
   22        9.025725
 
 -0.4000000E+00  0.0000000E+00  0.4000000E+00  0.1600000E-01
    1      -29.054988
    2      -29.044734
    3      -28.980197
    4      -16.566268
    5      -16.528881
    6      -16.370963
    7      -13.126029
    8      -12.452232
    9      -12.383718
   10       -0.945033
   11       -0.709128
   12       -0.241089
   13        0.707071
   14        0.960908
   15        1.711714
   16        1.770976
   17        2.197222
   18        3.364252
   19        7.337064
   20        7.482443
   21        7.794219
   22        9.019815
 
 -0.2000000E+00  0.0000000E+00  0.4000000E+00  0.1600000E-01
    1      -29.055975
    2      -29.003171
    3      -28.981738
    4      -16.619011
    5      -16.440377
    6      -16.381121
    7      -13.195645
    8      -12.694247
    9      -12.478473
   10       -0.664898
   11       -0.190791
   12        0.565037
   13        0.719472
   14        1.223121
   15        1.554523
   16        2.107135
   17        2.609450
   18        2.694459
   19        6.506921
   20        7.368761
   21        7.552236
   22        8.839219
 
  0.0000000E+00  0.2000000E+00  0.4000000E+00  0.1600000E-01
    1      -29.055938
    2      -29.009409
    3      -28.975614
    4      -16.622207
    5      -16.447924
    6      -16.369518
    7      -13.184437
    8      -12.707559
    9      -12.474173
   10       -0.614069
   11       -0.139806
   12        0.504366
   13        0.657383
   14        1.159962
   15        1.542151
   16        2.164104
   17        2.533633
   18        2.721231
   19        6.599651
   20        7.393644
   21        7.518135
   22        8.850455
 
  0.2000000E+00  0.2000000E+00  0.4000000E+00  0.1600000E-01
    1      -29.054945
    2      -29.008474
    3      -29.001596
    4      -16.593961
    5      -16.445330
    6      -16.415161
    7      -13.026688
    8      -12.659578
    9      -12.458431
   10       -0.619908
   11       -0.181469
   12        0.055438
   13        0.314187
   14        0.743812
   15        1.334709
   16        2.475855
   17        2.490379
   18        2.898792
   19        6.913245
   20        7.477415
   21        7.539501
   22        9.695115
 
  0.4000000E+00  0.2000000E+00  0.4000000E+00  0.1600000E-01
    1      -29.053537
    2      -29.043639
    3      -29.006275
    4      -16.552946
    5      -16.507392
    6      -16.412120
    7      -12.898649
    8      -12.465476
    9      -12.405094
   10       -0.822872
   11       -0.598770
   12       -0.308425
   13        0.042274
   14        0.161346
   15        1.037352
   16        2.554553
   17        2.661268
   18        3.405500
   19        7.521995
   20        7.589310
   21        7.840392
   22        9.784988
 
 -0.4000000E+00  0.2000000E+00  0.4000000E+00  0.1600000E-01
    1      -29.053700
    2      -29.043585
    3      -29.006168
    4      -16.548748
    5      -16.509787
    6      -16.411940
    7      -12.902748
    8      -12.461320
    9      -12.408980
   10       -0.845089
   11       -0.687560
   12       -0.234927
   13        0.030165
   14        0.181429
   15        1.094064
   16        2.626855
   17        2.643923
   18        3.382071
   19        7.457841
   20        7.604100
   21        7.859125
   22        9.676541
 
 -0.2000000E+00  0.2000000E+00  0.4000000E+00  0.1600000E-01
    1      -29.054988
    2      -29.009347
    3      -29.000701
    4      -16.591103
    5      -16.443839
    6      -16.416227
    7      -13.032603
    8      -12.656526
    9      -12.461997
   10       -0.646665
   11       -0.278400
   12        0.074659
   13        0.343181
   14        0.702939
   15        1.492809
   16        2.520591
   17        2.628004
   18        2.800618
   19        6.797845
   20        7.449602
   21        7.571891
   22        9.661945
 
  0.0000000E+00  0.4000000E+00  0.4000000E+00  0.1600000E-01
    1      -29.056216
    2      -29.049906
    3      -28.974000
    4      -16.579158
    5      -16.521997
    6      -16.361204
    7      -13.105029
    8      -12.481659
    9      -12.372901
   10       -0.915900
   11       -0.650095
   12       -0.333492
   13        0.665967
   14        0.891109
   15        1.677341
   16        1.822789
   17        2.175664
   18        3.401119
   19        7.439727
   20        7.471353
   21        7.753716
   22        9.063905
 
  0.2000000E+00  0.4000000E+00  0.4000000E+00  0.1600000E-01
    1      -29.054890
    2      -29.048686
    3      -29.000000
    4      -16.560904
    5      -16.501582
    6      -16.407073
    7      -12.883121
    8      -12.479387
    9      -12.406136
   10       -0.836322
   11       -0.575066
   12       -0.312137
   13       -0.003422
   14        0.137533
   15        1.062520
   16        2.549985
   17        2.660192
   18        3.423985
   19        7.531059
   20        7.605406
   21        7.820711
   22        9.756657
 
  0.4000000E+00  0.4000000E+00  0.4000000E+00  0.1600000E-01
    1      -29.052779
    2      -29.047409
    3      -29.040943
    4      -16.530679
    5      -16.478608
    6      -16.467089
    7      -12.528084
    8      -12.462721
    9      -12.452215
   10       -0.865967
   11       -0.502349
   12       -0.484354
   13       -0.385185
   14       -0.264188
   15       -0.221745
   16        3.245974
   17        3.285534
   18        3.539536
   19        7.820402
   20        7.957494
   21        7.989557
   22        9.793497
 
 -0.4000000E+00  0.4000000E+00  0.4000000E+00  0.1600000E-01
    1      -29.052819
    2      -29.048087
    3      -29.040232
    4      -16.528071
    5      -16.479787
    6      -16.466793
    7      -12.543876
    8      -12.463508
    9      -12.438935
   10       -0.869196
   11       -0.612340
   12       -0.526718
   13       -0.430678
   14       -0.214686
   15       -0.053090
   16        3.284986
   17        3.360617
   18        3.456147
   19        7.796467
   20        7.959572
   21        8.007924
   22        9.555973
 
 -0.2000000E+00  0.4000000E+00  0.4000000E+00  0.1600000E-01
    1      -29.054904
    2      -29.048842
    3      -28.999851
    4      -16.558427
    5      -16.501083
    6      -16.407212
    7      -12.888876
    8      -12.477792
    9      -12.407474
   10       -0.833679
   11       -0.610735
   12       -0.363208
   13       -0.057985
   14        0.209686
   15        1.158039
   16        2.630436
   17        2.663338
   18        3.398851
   19        7.442775
   20        7.631041
   21        7.829957
   22        9.602837
 
  0.0000000E+00 -0.4000000E+00  0.4000000E+00  0.1600000E-01
    1      -29.056601
    2      -29.049514
    3      -28.973998
    4      -16.574890
    5      -16.525512
    6      -16.361179
    7      -13.106872
    8      -12.469102
    9      -12.385261
   10       -0.970727
   11       -0.717408
   12       -0.197690
   13        0.643660
   14        0.920161
   15        1.738200
   16        1.779658
   17        2.175130
   18        3.387589
   19        7.381732
   20        7.494941
   21        7.773726
   22        9.048886
 
  0.2000000E+00 -0.4000000E+00  0.4000000E+00  0.1600000E-01
    1      -29.055374
    2      -29.048281
    3      -28.999920
    4      -16.556143
    5      -16.504253
    6      -16.406801
    7      -12.887758
    8      -12.470903
    9      -12.414666