    5    5 1024    1
  0.1170210E+02  0.3882200E-09  0.3882200E-09  0.3882200E-09  0.5000000E-15
  1.000000000000000E-004
  CAR 
 unknown system                          
     36     63     22
 
  0.0000000E+00  0.0000000E+00  0.0000000E+00  0.8000000E-02
    1      -28.974767
    2      -28.967848
    3      -28.961736
    4      -16.450487
    5      -16.417142
    6      -16.403355
    7      -13.886354
    8      -12.799677
    9      -12.774963
   10        0.564862
   11        0.572883
   12        0.576049
   13        2.183361
   14        2.212250
   15        2.506845
   16        2.817906
   17        2.970499
   18        3.025148
   19        5.927089
   20        6.022916
   21        6.254597
   22        8.316615
 
  0.2000000E+00  0.0000000E+00  0.0000000E+00  0.1600000E-01
    1      -28.989701
    2      -28.973538
    3      -28.965106
    4      -16.516856
    5      -16.430227
    6      -16.409139
    7      -13.663203
    8      -12.775127
    9      -12.695479
   10        0.143195
   11        0.596814
   12        0.608081
   13        1.743149
   14        1.887147
   15        2.181241
   16        2.256719
   17        2.779307
   18        2.900526
   19        6.187749
   20        6.440564
   21        6.594921
   22        8.396697
 
  0.4000000E+00  0.0000000E+00  0.0000000E+00  0.1600000E-01
    1      -29.031237
    2      -28.971846
    3      -28.963537
    4      -16.657865
    5      -16.424615
    6      -16.396257
    7      -13.297430
    8      -12.769035
    9      -12.524590
   10       -0.569809
   11        0.736788
   12        0.751211
   13        1.052616
   14        1.302309
   15        1.442158
   16        1.764575
   17        2.625096
   18        2.804006
   19        6.303660
   20        7.246824
   21        7.517593
   22        8.389359
 
  0.0000000E+00  0.2000000E+00  0.0000000E+00  0.1600000E-01
    1      -28.995585
    2      -28.971440
    3      -28.961315
    4      -16.529399
    5      -16.424863
    6      -16.398481
    7      -13.663916
    8      -12.788008
    9      -12.684819
   10        0.134621
   11        0.581548
   12        0.597489
   13        1.752051
   14        1.872749
   15        2.132110
   16        2.284062
   17        2.826060
   18        2.927129
   19        6.048506
   20        6.516156
   21        6.640547
   22        8.347118
 
  0.2000000E+00  0.2000000E+00  0.0000000E+00  0.1600000E-01
    1      -28.994837
    2      -28.988385
    3      -28.969352
    4      -16.534302
    5      -16.462076
    6      -16.413911
    7      -13.478097
    8      -12.727950
    9      -12.637458
   10       -0.042583
   11        0.356228
   12        0.597992
   13        1.027855
   14        1.625194
   15        1.950487
   16        2.331354
   17        2.678741
   18        2.754128
   19        6.495316
   20        6.621521
   21        6.821754
   22        8.812183
 
  0.4000000E+00  0.2000000E+00  0.0000000E+00  0.1600000E-01
    1      -29.030445
    2      -28.992892
    3      -28.967889
    4      -16.622863
    5      -16.469337
    6      -16.401422
    7      -13.195655
    8      -12.687376
    9      -12.472606
   10       -0.585189
   11       -0.090724
   12        0.443689
   13        0.764872
   14        1.195681
   15        1.545863
   16        2.092167
   17        2.589570
   18        2.704956
   19        6.661062
   20        7.319631
   21        7.522957
   22        8.898715
 
 -0.4000000E+00  0.2000000E+00  0.0000000E+00  0.1600000E-01
    1      -29.030495
    2      -28.992852
    3      -28.967881
    4      -16.621660
    5      -16.469927
    6      -16.401258
    7      -13.197341
    8      -12.685502
    9      -12.474257
   10       -0.621974
   11       -0.140772
   12        0.536414
   13        0.777179
   14        1.204699
   15        1.565424
   16        2.076451
   17        2.587893
   18        2.703759
   19        6.638753
   20        7.295344
   21        7.545881
   22        8.892829
 
 -0.2000000E+00  0.2000000E+00  0.0000000E+00  0.1600000E-01
    1      -28.995219
    2      -28.988042
    3      -28.969311
    4      -16.531081
    5      -16.464388
    6      -16.413504
    7      -13.479295
    8      -12.726105
    9      -12.640614
   10       -0.078235
   11        0.229234
   12        0.606025
   13        1.240435
   14        1.644168
   15        1.990986
   16        2.244142
   17        2.669293
   18        2.797624
   19        6.377142
   20        6.636541
   21        6.870588
   22        8.797479
 
  0.0000000E+00  0.4000000E+00  0.0000000E+00  0.1600000E-01
    1      -29.036993
    2      -28.969971
    3      -28.959649
    4      -16.664311
    5      -16.416605
    6      -16.390257
    7      -13.297710
    8      -12.775532
    9      -12.523858
   10       -0.592969
   11        0.681933
   12        0.697261
   13        1.100820
   14        1.299630
   15        1.420795
   16        1.757829
   17        2.713573
   18        2.855986
   19        6.138447
   20        7.334298
   21        7.534094
   22        8.340271
 
  0.2000000E+00  0.4000000E+00  0.0000000E+00  0.1600000E-01
    1      -29.036202
    2      -28.986986
    3      -28.968035
    4      -16.628677
    5      -16.457373
    6      -16.403196
    7      -13.196304
    8      -12.687979
    9      -12.474725
   10       -0.601613
   11       -0.126418
   12        0.473814
   13        0.727502
   14        1.222473
   15        1.534044
   16        2.101798
   17        2.631907
   18        2.696019
   19        6.562150
   20        7.392964
   21        7.529484
   22        8.871754
 
  0.4000000E+00  0.4000000E+00  0.0000000E+00  0.1600000E-01
    1      -29.035253
    2      -29.028601
    3      -28.966624
    4      -16.578817
    5      -16.542119
    6      -16.393132
    7      -13.127909
    8      -12.447828
    9      -12.374402
   10       -0.899216
   11       -0.659466
   12       -0.335394
   13        0.741316
   14        0.964305
   15        1.660881
   16        1.811575
   17        2.210155
   18        3.361422
   19        7.402311
   20        7.469444
   21        7.801970
   22        9.029209
 
 -0.4000000E+00  0.4000000E+00  0.0000000E+00  0.1600000E-01
    1      -29.035420
    2      -29.028430
    3      -28.966621
    4      -16.576162
    5      -16.544354
    6      -16.393070
    7      -13.129563
    8      -12.440549
    9      -12.380846
   10       -0.936444
   11       -0.695896
   12       -0.254999
   13        0.735589
   14        0.972635
   15        1.707095
   16        1.769211
   17        2.216204
   18        3.356107
   19        7.360561
   20        7.484309
   21        7.818889
   22        9.024914
 
 -0.2000000E+00  0.4000000E+00  0.0000000E+00  0.1600000E-01
    1      -29.036239
    2      -28.986959
    3      -28.968025
    4      -16.627577
    5      -16.457884
    6      -16.403001
    7      -13.198139
    8      -12.685684
    9      -12.476658
   10       -0.640680
   11       -0.163744
   12        0.552751
   13        0.742514
   14        1.233806
   15        1.549793
   16        2.085549
   17        2.629007
   18        2.699223
   19        6.541545
   20        7.357837
   21        7.560297
   22        8.867578
 
  0.0000000E+00  0.0000000E+00  0.2000000E+00  0.1600000E-01
    1      -28.999384
    2      -28.967764
    3      -28.961236
    4      -16.535264
    5      -16.417243
    6      -16.398631
    7      -13.663844
    8      -12.791351
    9      -12.682002
   10        0.132493
   11        0.573841
   12        0.589275
   13        1.756819
   14        1.863582
   15        2.133134
   16        2.263839
   17        2.854780
   18        2.932729
   19        5.984208
   20        6.563231
   21        6.668132
   22        8.327987
 
  0.2000000E+00  0.0000000E+00  0.2000000E+00  0.1600000E-01
    1      -28.998674
    2      -28.988106
    3      -28.965830
    4      -16.538368
    5      -16.462673
    6      -16.407890
    7      -13.477209
    8      -12.732235
    9      -12.634370
   10       -0.040770
   11        0.358375
   12        0.592455
   13        1.012561
   14        1.619260
   15        1.975094
   16        2.319252
   17        2.683527
   18        2.733420
   19        6.485207
   20        6.652806
   21        6.829766
   22        8.797650
 
  0.4000000E+00  0.0000000E+00  0.2000000E+00  0.1600000E-01
    1      -29.030460
    2      -28.996549
    3      -28.964244
    4      -16.623413
    5      -16.472694
    6      -16.396509
    7      -13.191460
    8      -12.691722
    9      -12.472707
   10       -0.583438
   11       -0.087870
   12        0.453474
   13        0.749827
   14        1.174078
   15        1.550303
   16        2.110191
   17        2.555285
   18        2.716316
   19        6.691613
   20        7.314411
   21        7.519626
   22        8.899699
 
 -0.4000000E+00  0.0000000E+00  0.2000000E+00  0.1600000E-01
    1      -29.030530
    2      -28.996485
    3      -28.964239
    4      -16.621974
    5      -16.473493
    6      -16.396396
    7      -13.192296
    8      -12.690190
    9      -12.474911
   10       -0.626770
   11       -0.145221
   12        0.559093
   13        0.763461
   14        1.188678
   15        1.572109
   16        2.096290
   17        2.552782
   18        2.708962
   19        6.667912
   20        7.291914
   21        7.539136
   22        8.891108
 
 -0.2000000E+00  0.0000000E+00  0.2000000E+00  0.1600000E-01
    1      -28.999012
    2      -28.987788
    3      -28.965809
    4      -16.534516
    5      -16.465533
    6      -16.407611
    7      -13.477283
    8      -12.730743
    9      -12.638366
   10       -0.084969
   11        0.215109
   12        0.595529
   13        1.262674
   14        1.646292
   15        2.016512
   16        2.238985
   17        2.663952
   18        2.770603
   19        6.377412
   20        6.656927
   21        6.870915
   22        8.778622
 
  0.0000000E+00  0.2000000E+00  0.2000000E+00  0.1600000E-01
    1      -29.000045
    2      -28.991915
    3      -28.960637
    4      -16.545782
    5      -16.466019
    6      -16.394204
    7      -13.477378
    8      -12.745373
    9      -12.623410
   10       -0.041195
   11        0.396080
   12        0.589930
   13        0.952853
   14        1.601905
   15        2.023996
   16        2.289158
   17        2.683783
   18        2.716206
   19        6.548340
   20        6.623499
   21        6.836375
   22        8.768242
 
  0.2000000E+00  0.2000000E+00  0.2000000E+00  0.1600000E-01
    1      -28.998948
    2      -28.992005
    3      -28.985801
    4      -16.543480
    5      -16.452853
    6      -16.450723
    7      -13.298895
    8      -12.645169
    9      -12.634225
   10       -0.196624
   11        0.334973
   12        0.387768
   13        0.951261
   14        0.964896
   15        1.354079
   16        2.516438
   17        2.541320
   18        2.875867
   19        6.812362
   20        6.885296
   21        6.915595
   22        9.681355
 
  0.4000000E+00  0.2000000E+00  0.2000000E+00  0.1600000E-01
    1      -29.029475
    2      -28.996947
    3      -28.988981
    4      -16.596417
    5      -16.478309
    6      -16.430430
    7      -13.029969
    8      -12.654028
    9      -12.450265
   10       -0.601353
   11       -0.111725
   12        0.122009
   13        0.277211
   14        0.722633
   15        1.310164
   16        2.465147
   17        2.489948
   18        2.903352
   19        6.999286
   20        7.415929
   21        7.573916
   22        9.732191
 
 -0.4000000E+00  0.2000000E+00  0.2000000E+00  0.1600000E-01
    1      -29.029639
    2      -28.996932
    3      -28.988844
    4      -16.593669
    5      -16.479633
    6      -16.429908
    7      -13.031852
    8      -12.655345
    9      -12.450858
   10       -0.662434
   11       -0.185353
   12        0.077340
   13        0.387575
   14        0.798565
   15        1.365797
   16        2.499919
   17        2.526937
   18        2.831097
   19        6.981076
   20        7.364532
   21        7.601685
   22        9.737610
 
 -0.2000000E+00  0.2000000E+00  0.2000000E+00  0.1600000E-01
    1      -28.999047
    2      -28.993148
    3      -28.984570
    4      -16.538622
    5      -16.453355
    6      -16.451781
    7      -13.300822
    8      -12.647693
    9      -12.636129
   10       -0.229286
   11        0.174994
   12        0.290363
   13        0.945842
   14        1.143964
   15        1.592640
   16        2.554373
   17        2.665297
   18        2.736095
   19        6.607323
   20        6.929222
   21        6.949941
   22        9.455544
 
  0.0000000E+00  0.4000000E+00  0.2000000E+00  0.1600000E-01
    1      -29.036272
    2      -28.995960
    3      -28.958982
    4      -16.630631
    5      -16.469051
    6      -16.386170
    7      -13.186944
    8      -12.703517
    9      -12.471399
   10       -0.592699
   11       -0.117638
   12        0.507090
   13        0.694726
   14        1.151568
   15        1.548778
   16        2.159508
   17        2.520727
   18        2.730174
   19        6.651173
   20        7.371591
   21        7.513622
   22        8.875641
 
  0.2000000E+00  0.4000000E+00  0.2000000E+00  0.1600000E-01
    1      -29.035278
    2      -28.995118
    3      -28.984992
    4      -16.602629
    5      -16.466776
    6      -16.431222
    7      -13.028874
    8      -12.655376
    9      -12.454492
   10       -0.603563
   11       -0.153388
   12        0.086441
   13        0.308111
   14        0.734577
   15        1.328047
   16        2.473816
   17        2.501334
   18        2.900813
   19        6.948899
   20        7.466975
   21        7.553743
   22        9.716918
 
  0.4000000E+00  0.4000000E+00  0.2000000E+00  0.1600000E-01
    1      -29.033979
    2      -29.027393
    3      -28.992647
    4      -16.562693
    5      -16.524069
    6      -16.431878
    7      -12.901525
    8      -12.456137
    9      -12.402240
   10       -0.809192
   11       -0.599625
   12       -0.310862
   13        0.063885
   14        0.168084
   15        1.039819
   16        2.559459
   17        2.670833
   18        3.398506
   19        7.550796
   20        7.592820
   21        7.864322
   22        9.788394
 
 -0.4000000E+00  0.4000000E+00  0.2000000E+00  0.1600000E-01
    1      -29.034153
    2      -29.027369
    3      -28.992502
    4      -16.558974
    5      -16.525912
    6      -16.431751
    7      -12.905549
    8      -12.452806
    9      -12.405287
   10       -0.836317
   11       -0.674200
   12       -0.253999
   13        0.049970
   14        0.188365
   15        1.105345
   16        2.631838
   17        2.654229
   18        3.376277
   19        7.483977
   20        7.607759
   21        7.881130
   22        9.679622
 
 -0.2000000E+00  0.4000000E+00  0.2000000E+00  0.1600000E-01
    1      -29.035307
    2      -28.995908
    3      -28.984200
    4      -16.600006
    5      -16.465205
    6      -16.432100
    7      -13.034970
    8      -12.652163
    9      -12.457896
   10       -0.626171
   11       -0.250588
   12        0.098578
   13        0.332394
   14        0.677312
   15        1.509020
   16        2.518710
   17        2.637905
   18        2.810984
   19        6.821763
   20        7.445487
   21        7.580230
   22        9.680495
 
  0.0000000E+00 -0.4000000E+00  0.2000000E+00  0.1600000E-01
    1      -29.036381
    2      -28.995857
    3      -28.958979
    4      -16.628376
    5      -16.470453
    6      -16.386125
    7      -13.185457
    8      -12.702161
    9      -12.476394
   10       -0.663797
   11       -0.180660
   12        0.624661
   13        0.734392
   14        1.186232
   15        1.577182
   16        2.149255
   17        2.515059
   18        2.706542
   19        6.621406
   20        7.345138
   21        7.527864
   22        8.859382
 
  0.2000000E+00 -0.4000000E+00  0.2000000E+00  0.1600000E-01
    1      -29.035484
    2      -28.995022
    3      -28.984900
    4      -16.599146
    5      -16.468581
    6      -16.430506
    7      -13.028888
    8      -12.657743
    9      -12.456990
   10       -0.686467
   11       -0.229557
   12        0.036819
   13        0.433964
   14        0.832871
   15        1.397117
   16        2.513922
   17        2.546519
   18        2.812444
   19        6.924089
   20        7.399088
   21        7.587851
   22        9.721761
 
  0.4000000E+00 -0.4000000E+00  0.2000000E+00  0.1600000E-01
    1      -29.034369
    2      -29.027222
    3      -28.992445
    4      -16.558346
    5      -16.525266
    6      -16.432114
    7      -12.906517
    8      -12.451960
    9      -12.406914
   10       -0.838068
   11       -0.680691
   12       -0.266809
   13        0.031249
   14        0.200145
   15        1.145716
   16        2.632754
   17        2.672141
   18        3.372446
   19        7.481662
   20        7.591030
   21        7.881256
   22        9.648468
 
 -0.4000000E+00 -0.4000000E+00  0.2000000E+00  0.1600000E-01
    1      -29.034116
    2      -29.027617
    3      -28.992323
    4      -16.559131
    5      -16.523347
    6      -16.432393
    7      -12.907231
    8      -12.455763
    9      -12.404069
   10       -0.810417
   11       -0.639169
   12       -0.378581
   13       -0.025690
   14        0.264317
   15        1.183966
   16        2.663930
   17        2.674633
   18        3.367065
   19        7.440031
   20        7.622315
   21        7.865075
   22        9.588620
 
 -0.2000000E+00 -0.4000000E+00  0.2000000E+00  0.1600000E-01
    1      -29.035409
    2      -28.995772
    3      -28.984241
    4      -16.598729
    5      -16.466174
    6      -16.431903
    7      -13.032014
    8      -12.654732
    9      -12.459534
   10       -0.653301
   11       -0.269326
   12        0.087701
   13        0.339766
   14        0.741842
   15        1.521234
   16        2.531678
   17        2.650556
   18        2.781862
   19        6.812286
   20        7.454044
   21        7.560569
   22        9.653818
 
  0.0000000E+00 -0.2000000E+00  0.2000000E+00  0.1600000E-01
    1      -29.000842
    2      -28.991125
    3      -28.960628
    4      -16.539048
    5      -16.471382
    6      -16.394099
    7      -13.473941
    8      -12.745465
    9      -12.630353
   10       -0.118383
   11        0.186817
   12        0.580920
   13        1.350143
   14        1.651870
   15        2.076875
   16        2.231773
   17        2.646119
   18        2.712077
   19        6.390470
   20        6.675406
   21        6.843881
   22        8.733262
 
  0.2000000E+00 -0.2000000E+00  0.2000000E+00  0.1600000E-01
    1      -28.999918
    2      -28.992069
    3      -28.984786
    4      -16.535988
    5      -16.457824
    6      -16.449216
    7      -13.298457
    8      -12.650893
    9      -12.637036
   10       -0.245045
   11        0.134274
   12        0.260608
   13        0.976681
   14        1.186401
   15        1.657591
   16        2.578647
   17        2.670975
   18        2.698009
   19        6.590119
   20        6.895537
   21        6.954934
   22        9.384575
 
  0.4000000E+00 -0.2000000E+00  0.2000000E+00  0.1600000E-01
    1      -29.029513
    2      -28.998460
    3      -28.987476
    4      -16.592672
    5      -16.474961
    6      -16.432712
    7      -13.037897
    8      -12.650049
    9      -12.455436
   10       -0.621179
   11       -0.234757
   12        0.109785
   13        0.302208
   14        0.636934
   15        1.587745
   16        2.531612
   17        2.663041
   18        2.794277
   19        6.809875
   20        7.411690
   21        7.581134
   22        9.646787
 
 -0.4000000E+00 -0.2000000E+00  0.2000000E+00  0.1600000E-01
    1      -29.029545
    2      -28.998409
    3      -28.987498
    4      -16.592401
    5      -16.475169
    6      -16.432707
    7      -13.037145
    8      -12.650658
    9      -12.455753
   10       -0.626815
   11       -0.239501
   12        0.107066
   13        0.301634
   14        0.654035
   15        1.589526
   16        2.534322
   17        2.664729
   18        2.789273
   19        6.807708
   20        7.413464
   21        7.577283
   22        9.638778
 
 -0.2000000E+00 -0.2000000E+00  0.2000000E+00  0.1600000E-01
    1      -29.000158
    2      -28.991716
    3      -28.984903
    4      -16.535355
    5      -16.458102
    6      -16.449459
    7      -13.297664
    8      -12.650208
    9      -12.638798
   10       -0.250132
   11        0.135132
   12        0.240703
   13        0.984497
   14        1.202153
   15        1.670206
   16        2.583881
   17        2.672756
   18        2.689737
   19        6.585421
   20        6.894824
   21        6.948190
   22        9.371096
 
  0.0000000E+00  0.0000000E+00  0.4000000E+00  0.1600000E-01
    1      -29.040974
    2      -28.966156
    3      -28.959597
    4      -16.667532
    5      -16.409454
    6      -16.390640
    7      -13.297330
    8      -12.776863
    9      -12.523107
   10       -0.608999
   11        0.654902
   12        0.671594
   13        1.119382
   14        1.301082
   15        1.407489
   16        1.747945
   17        2.759181
   18        2.871442
   19        6.072678
   20        7.375537
   21        7.558714
   22        8.320509
 
  0.2000000E+00  0.0000000E+00  0.4000000E+00  0.1600000E-01
    1      -29.040184
    2      -28.986764
    3      -28.964371
    4      -16.631991
    5      -16.455691
    6      -16.398495
    7      -13.192388
    8      -12.691848
    9      -12.474869
   10       -0.611735
   11       -0.143558
   12        0.494506
   13        0.696368
   14        1.208738
   15        1.538558
   16        2.124200
   17        2.618098
   18        2.698678
   19        6.549468
   20        7.417664
   21        7.543188
   22        8.862761
 
  0.4000000E+00  0.0000000E+00  0.4000000E+00  0.1600000E-01
    1      -29.039199
    2      -29.028505
    3      -28.962841
    4      -16.581826
    5      -16.541417
    6      -16.388456
    7      -13.119581
    8      -12.456166
    9      -12.374508
   10       -0.904365
   11       -0.658203
   12       -0.330461
   13        0.716518
   14        0.941475
   15        1.670765
   16        1.814383
   17        2.200529
   18        3.374769
   19        7.398789
   20        7.496584
   21        7.794131
   22        9.045919
 
 -0.4000000E+00  0.0000000E+00  0.4000000E+00  0.1600000E-01
    1      -29.039333
    2      -29.028366
    3      -28.962838
    4      -16.578839
    5      -16.543975
    6      -16.388411
    7      -13.120997
    8      -12.447854
    9      -12.382246
   10       -0.947084
   11       -0.700201
   12       -0.237486
   13        0.705158
   14        0.956711
   15        1.717143
   16        1.774734
   17        2.203881
   18        3.367862
   19        7.364668
   20        7.502036
   21        7.811980
   22        9.039631
 
 -0.2000000E+00  0.0000000E+00  0.4000000E+00  0.1600000E-01
    1      -29.040227
    2      -28.986726
    3      -28.964365
    4      -16.630731
    5      -16.456327
    6      -16.398352
    7      -13.193500
    8      -12.689544
    9      -12.477584
   10       -0.659371
   11       -0.179492
   12        0.574545
   13        0.717919
   14        1.225921
   15        1.554926
   16        2.109639
   17        2.616648
   18        2.694950
   19        6.528579
   20        7.381654
   21        7.571672
   22        8.856833
 
  0.0000000E+00  0.2000000E+00  0.4000000E+00  0.1600000E-01
    1      -29.040226
    2      -28.992063
    3      -28.958995
    4      -16.633379
    5      -16.463999
    6      -16.386412
    7      -13.187224
    8      -12.703045
    9      -12.471437
   10       -0.604044
   11       -0.137388
   12        0.516854
   13        0.677441
   14        1.160397
   15        1.548303
   16        2.164029
   17        2.541359
   18        2.723006
   19        6.605965
   20        7.402244
   21        7.530808
   22        8.866255
 
  0.2000000E+00  0.2000000E+00  0.4000000E+00  0.1600000E-01
    1      -29.039232
    2      -28.991275
    3      -28.984942
    4      -16.605367
    5      -16.461283
    6      -16.432037
    7      -13.027199
    8      -12.655346
    9      -12.456248
   10       -0.609002
   11       -0.173219
   12        0.061542
   13        0.321767
   14        0.748092
   15        1.333948
   16        2.478368
   17        2.500505
   18        2.899389
   19        6.930420
   20        7.489361
   21        7.554281
   22        9.711323
 
  0.4000000E+00  0.2000000E+00  0.4000000E+00  0.1600000E-01
    1      -29.037916
    2      -29.027272
    3      -28.988873
    4      -16.565077
    5      -16.522973
    6      -16.429083
    7      -12.894750
    8      -12.462164
    9      -12.403001
   10       -0.815697
   11       -0.595012
   12       -0.305592
   13        0.042374
   14        0.159442
   15        1.048390
   16        2.559405
   17        2.666426
   18        3.408033
   19        7.545380
   20        7.604981
   21        7.858633
   22        9.780632
 
 -0.4000000E+00  0.2000000E+00  0.4000000E+00  0.1600000E-01
    1      -29.038061
    2      -29.027235
    3      -28.988767
    4      -16.561307
    5      -16.525146
    6      -16.428842
    7      -12.898431
    8      -12.457959
    9      -12.406996
   10       -0.844526
   11       -0.679494
   12       -0.231279
   13        0.033553
   14        0.179556
   15        1.102586
   16        2.628580
   17        2.649245
   18        3.385346
   19        7.483330
   20        7.618487
   21        7.876873
   22        9.677908
 
 -0.2000000E+00  0.2000000E+00  0.4000000E+00  0.1600000E-01
    1      -29.039273
    2      -28.992221
    3      -28.983977
    4      -16.602814
    5      -16.460329
    6      -16.432501
    7      -13.032336
    8      -12.652627
    9      -12.459691
   10       -0.638759
   11       -0.269713
   12        0.083288
   13        0.348535
   14        0.710567
   15        1.489676
   16        2.519273
   17        2.632740
   18        2.806842
   19        6.817924
   20        7.460460
   21        7.587284
   22        9.679213
 
  0.0000000E+00  0.4000000E+00  0.4000000E+00  0.1600000E-01
    1      -29.040771
    2      -29.032280
    3      -28.957401
    4      -16.589531
    5      -16.538184
    6      -16.378213
    7      -13.109121
    8      -12.479127
    9      -12.368760
   10       -0.910688
   11       -0.643847
   12       -0.313991
   13        0.692808
   14        0.893320
   15        1.684724
   16        1.823092
   17        2.168467
   18        3.403156
   19        7.445921
   20        7.483810
   21        7.760030
   22        9.077351
 
  0.2000000E+00  0.4000000E+00  0.4000000E+00  0.1600000E-01
    1      -29.039441
    2      -29.031066
    3      -28.983503
    4      -16.571561
    5      -16.518034
    6      -16.423746
    7      -12.885772
    8      -12.477171
    9      -12.401596
   10       -0.829621
   11       -0.568407
   12       -0.292749
   13        0.015637
   14        0.139117
   15        1.048849
   16        2.563405
   17        2.661607
   18        3.425976
   19        7.541994
   20        7.624218
   21        7.828205
   22        9.759191
 
  0.4000000E+00  0.4000000E+00  0.4000000E+00  0.1600000E-01
    1      -29.037355
    2      -29.030290
    3      -29.024085
    4      -16.542050
    5      -16.494624
    6      -16.484017
    7      -12.528848
    8      -12.457552
    9      -12.449140
   10       -0.853362
   11       -0.499240
   12       -0.482923
   13       -0.383989
   14       -0.245997
   15       -0.228866
   16        3.260097
   17        3.289883
   18        3.540008
   19        7.834921
   20        7.971879
   21        8.009849
   22        9.782005
 
 -0.4000000E+00  0.4000000E+00  0.4000000E+00  0.1600000E-01
    1      -29.037406
    2      -29.030983
    3      -29.023348
    4      -16.539799
    5      -16.495516
    6      -16.483762
    7      -12.542252
    8      -12.458254
    9      -12.438056
   10       -0.859641
   11       -0.611508
   12       -0.523073
   13       -0.427938
   14       -0.199026
   15       -0.056265
   16        3.296249
   17        3.363132
   18        3.459143
   19        7.814232
   20        7.970166
   21        8.027580
   22        9.554989
 
 -0.2000000E+00  0.4000000E+00  0.4000000E+00  0.1600000E-01
    1      -29.039459
    2      -29.031226
    3      -28.983347
    4      -16.569372
    5      -16.517558
    6      -16.423756
    7      -12.890668
    8      -12.476085
    9      -12.402841
   10       -0.827217
   11       -0.606486
   12       -0.345838
   13       -0.038826
   14        0.211928
   15        1.149170
   16        2.638493
   17        2.664331
   18        3.402316
   19        7.455683
   20        7.649169
   21        7.836353
   22        9.614318
 
  0.0000000E+00 -0.4000000E+00  0.4000000E+00  0.1600000E-01
    1      -29.041078
    2      -29.031965
    3      -28.957399
    4      -16.585347
    5      -16.541808
    6      -16.378197
    7      -13.110053
    8      -12.467174
    9      -12.381005
   10       -0.969772
   11       -0.710237
   12       -0.174196
   13        0.662482
   14        0.932021
   15        1.736339
   16        1.786948
   17        2.166011
   18        3.389850
   19        7.393771
   20        7.500608
   21        7.780357
   22        9.063072
 
  0.2000000E+00 -0.4000000E+00  0.4000000E+00  0.1600000E-01
    1      -29.039834
    2      -29.030754
    3      -28.983422
    4      -16.566955
    5      -16.520881
    6      -16.423395
    7      -12.889030
    8      -12.469227
    9      -12.410398