    5    5 1024    1
  0.1170210E+02  0.3882200E-09  0.3882200E-09  0.3882200E-09  0.5000000E-15
  1.000000000000000E-004
  CAR 
 unknown system                          
     36     19     22
 
  0.0000000E+00  0.0000000E+00  0.0000000E+00  0.8000000E-02
    1      -28.930486
    2      -28.930486
    3      -28.923198
    4      -16.489121
    5      -16.463018
    6      -16.463018
    7      -13.878285
    8      -12.790964
    9      -12.790964
   10        0.595915
   11        0.595915
   12        0.631113
   13        2.216830
   14        2.216830
   15        2.520787
   16        2.861501
   17        2.996435
   18        2.996435
   19        6.013029
   20        6.013029
   21        6.162680
   22        8.390307
 
  0.2000000E+00  0.0000000E+00  0.0000000E+00  0.4800000E-01
    1      -28.955039
    2      -28.929405
    3      -28.924038
    4      -16.569712
    5      -16.469103
    6      -16.456594
    7      -13.656778
    8      -12.787312
    9      -12.689152
   10        0.170628
   11        0.616132
   12        0.642922
   13        1.736879
   14        1.870654
   15        2.186033
   16        2.251997
   17        2.851447
   18        2.908332
   19        6.077829
   20        6.535956
   21        6.656258
   22        8.398994
 
  0.4000000E+00  0.0000000E+00  0.0000000E+00  0.4800000E-01
    1      -28.997138
    2      -28.927636
    3      -28.922484
    4      -16.703034
    5      -16.462820
    6      -16.446157
    7      -13.295363
    8      -12.775664
    9      -12.516272
   10       -0.589228
   11        0.741709
   12        0.751690
   13        1.059181
   14        1.286528
   15        1.430899
   16        1.760687
   17        2.731731
   18        2.824951
   19        6.158782
   20        7.395845
   21        7.579302
   22        8.389681
 
  0.2000000E+00  0.2000000E+00  0.0000000E+00  0.4800000E-01
    1      -28.956140
    2      -28.951573
    3      -28.925316
    4      -16.580472
    5      -16.512589
    6      -16.455799
    7      -13.471168
    8      -12.735517
    9      -12.632770
   10       -0.007643
   11        0.393256
   12        0.639637
   13        0.991736
   14        1.593988
   15        1.978067
   16        2.326382
   17        2.695099
   18        2.722923
   19        6.549458
   20        6.656375
   21        6.869768
   22        8.830667
 
  0.4000000E+00  0.2000000E+00  0.0000000E+00  0.9600000E-01
    1      -28.996356
    2      -28.952076
    3      -28.923742
    4      -16.669038
    5      -16.511890
    6      -16.446348
    7      -13.190018
    8      -12.691592
    9      -12.466000
   10       -0.592870
   11       -0.107301
   12        0.493959
   13        0.752207
   14        1.144436
   15        1.566688
   16        2.112806
   17        2.574312
   18        2.719020
   19        6.645223
   20        7.444490
   21        7.574476
   22        8.922968
 
 -0.4000000E+00  0.2000000E+00  0.0000000E+00  0.9600000E-01
    1      -28.996401
    2      -28.952035
    3      -28.923738
    4      -16.667572
    5      -16.512835
    6      -16.446219
    7      -13.190595
    8      -12.690041
    9      -12.468305
   10       -0.643717
   11       -0.144835
   12        0.598001
   13        0.746932
   14        1.165354
   15        1.588830
   16        2.098999
   17        2.574526
   18        2.710849
   19        6.622209
   20        7.416607
   21        7.595229
   22        8.916325
 
 -0.2000000E+00  0.2000000E+00  0.0000000E+00  0.4800000E-01
    1      -28.956753
    2      -28.950970
    3      -28.925301
    4      -16.575583
    5      -16.516698
    6      -16.455510
    7      -13.470615
    8      -12.734553
    9      -12.636565
   10       -0.062332
   11        0.258099
   12        0.637685
   13        1.235946
   14        1.623379
   15        2.017361
   16        2.257761
   17        2.671520
   18        2.766787
   19        6.419828
   20        6.694100
   21        6.897370
   22        8.814237
 
  0.4000000E+00  0.4000000E+00  0.0000000E+00  0.4800000E-01
    1      -28.997380
    2      -28.992299
    3      -28.922222
    4      -16.624489
    5      -16.586265
    6      -16.437776
    7      -13.120721
    8      -12.445181
    9      -12.367811
   10       -0.904076
   11       -0.650772
   12       -0.352466
   13        0.748149
   14        0.900556
   15        1.688228
   16        1.837371
   17        2.164536
   18        3.387280
   19        7.489258
   20        7.524125
   21        7.847898
   22        9.101434
 
 -0.4000000E+00  0.4000000E+00  0.0000000E+00  0.4800000E-01
    1      -28.997614
    2      -28.992058
    3      -28.922221
    4      -16.620960
    5      -16.589432
    6      -16.437727
    7      -13.121927
    8      -12.437196
    9      -12.375307
   10       -0.955741
   11       -0.685886
   12       -0.257793
   13        0.727764
   14        0.925266
   15        1.725830
   16        1.807123
   17        2.168132
   18        3.379164
   19        7.440588
   20        7.544590
   21        7.863155
   22        9.094196
 
  0.2000000E+00  0.2000000E+00  0.2000000E+00  0.1600000E-01
    1      -28.954953
    2      -28.954953
    3      -28.947592
    4      -16.583993
    5      -16.501139
    6      -16.501139
    7      -13.290538
    8      -12.640107
    9      -12.640107
   10       -0.150988
   11        0.376480
   12        0.376480
   13        0.955285
   14        0.955285
   15        1.335877
   16        2.525431
   17        2.525431
   18        2.882288
   19        6.899356
   20        6.923323
   21        6.923324
   22        9.694881
 
  0.4000000E+00  0.2000000E+00  0.2000000E+00  0.4800000E-01
    1      -28.995370
    2      -28.953027
    3      -28.948246
    4      -16.642597
    5      -16.515519
    6      -16.481451
    7      -13.022364
    8      -12.654250
    9      -12.446226
   10       -0.591741
   11       -0.142419
   12        0.102964
   13        0.307084
   14        0.716622
   15        1.303692
   16        2.479287
   17        2.494060
   18        2.908687
   19        7.007810
   20        7.525689
   21        7.616974
   22        9.774493
 
 -0.4000000E+00  0.2000000E+00  0.2000000E+00  0.4800000E-01
    1      -28.995515
    2      -28.953029
    3      -28.948114
    4      -16.639413
    5      -16.517320
    6      -16.480857
    7      -13.024223
    8      -12.655704
    9      -12.446693
   10       -0.675600
   11       -0.198036
   12        0.065168
   13        0.421908
   14        0.784325
   15        1.358906
   16        2.524622
   17        2.534423
   18        2.831943
   19        6.986021
   20        7.465467
   21        7.651353
   22        9.787985
 
 -0.2000000E+00  0.2000000E+00  0.2000000E+00  0.4800000E-01
    1      -28.956139
    2      -28.954957
    3      -28.946416
    4      -16.576841
    5      -16.505922
    6      -16.500192
    7      -13.292070
    8      -12.642604
    9      -12.642433
   10       -0.216914
   11        0.223845
   12        0.287925
   13        0.947896
   14        1.130328
   15        1.581214
   16        2.579302
   17        2.690244
   18        2.721351
   19        6.643710
   20        6.964726
   21        6.995852
   22        9.403344
 
  0.4000000E+00  0.4000000E+00  0.2000000E+00  0.4800000E-01
    1      -28.996025
    2      -28.991107
    3      -28.948611
    4      -16.608072
    5      -16.567824
    6      -16.478081
    7      -12.890252
    8      -12.451915
    9      -12.397211
   10       -0.798600
   11       -0.597967
   12       -0.330881
   13        0.059912
   14        0.137418
   15        1.007465
   16        2.572604
   17        2.672970
   18        3.418841
   19        7.619605
   20        7.671852
   21        7.917002
   22        9.789250
 
 -0.4000000E+00  0.4000000E+00  0.2000000E+00  0.9600000E-01
    1      -28.996376
    2      -28.990870
    3      -28.948505
    4      -16.603427
    5      -16.570317
    6      -16.478086
    7      -12.895730
    8      -12.448031
    9      -12.399432
   10       -0.850675
   11       -0.668736
   12       -0.250060
   13        0.034122
   14        0.166126
   15        1.070325
   16        2.639050
   17        2.673439
   18        3.395342
   19        7.554557
   20        7.682138
   21        7.936207
   22        9.680211
 
 -0.2000000E+00  0.4000000E+00  0.2000000E+00  0.9600000E-01
    1      -28.995420
    2      -28.954366
    3      -28.946889
    4      -16.639317
    5      -16.513273
    6      -16.483437
    7      -13.030954
    8      -12.648427
    9      -12.449930
   10       -0.633685
   11       -0.234003
   12        0.135175
   13        0.314223
   14        0.662630
   15        1.473815
   16        2.528400
   17        2.667973
   18        2.811735
   19        6.864195
   20        7.523920
   21        7.630792
   22        9.718569
 
 -0.4000000E+00 -0.4000000E+00  0.2000000E+00  0.4800000E-01
    1      -28.996029
    2      -28.991332
    3      -28.948413
    4      -16.605012
    5      -16.567286
    6      -16.478595
    7      -12.898356
    8      -12.447899
    9      -12.398635
   10       -0.804966
   11       -0.632358
   12       -0.382259
   13       -0.007145
   14        0.210873
   15        1.113970
   16        2.675218
   17        2.675753
   18        3.392397
   19        7.520470
   20        7.702944
   21        7.925090
   22        9.625003
 
  0.4000000E+00  0.4000000E+00  0.4000000E+00  0.1600000E-01
    1      -28.993833
    2      -28.993833
    3      -28.986258
    4      -16.584356
    5      -16.536870
    6      -16.536870
    7      -12.511102
    8      -12.447396
    9      -12.447396
   10       -0.799106
   11       -0.495591
   12       -0.495591
   13       -0.429080
   14       -0.281223
   15       -0.281223
   16        3.286254
   17        3.286254
   18        3.545388
   19        7.926363
   20        8.065441
   21        8.065441
   22        9.803034
 
 -0.4000000E+00  0.4000000E+00  0.4000000E+00  0.4800000E-01
    1      -28.994578
    2      -28.993834
    3      -28.985524
    4      -16.581220
    5      -16.538473
    6      -16.536526
    7      -12.536660
    8      -12.448271
    9      -12.424232
   10       -0.822158
   11       -0.628631
   12       -0.540304
   13       -0.456351
   14       -0.228958
   15       -0.089461
   16        3.332655
   17        3.361487
   18        3.461613
   19        7.906974
   20        8.062643
   21        8.087081
   22        9.536694
