 vasp.5.3.5 31Mar14 (build Dec 17 2015 22:09:37) complex                        
  
 executed on             LinuxIFC date 2017.03.19  05:10:23
 running on   22 total cores
 distrk:  each k-point on   22 cores,    1 groups
 distr:  one band on NCORES_PER_BAND=   1 cores,   22 groups


--------------------------------------------------------------------------------------------------------


 INCAR:
 POTCAR:    PAW_PBE Ti_pv 07Sep2000               
 POTCAR:    PAW_PBE Ca_pv 06Sep2000               
 POTCAR:    PAW_PBE O 08Apr2002                   

 ----------------------------------------------------------------------------- 
|                                                                             |
|           W    W    AA    RRRRR   N    N  II  N    N   GGGG   !!!           |
|           W    W   A  A   R    R  NN   N  II  NN   N  G    G  !!!           |
|           W    W  A    A  R    R  N N  N  II  N N  N  G       !!!           |
|           W WW W  AAAAAA  RRRRR   N  N N  II  N  N N  G  GGG   !            |
|           WW  WW  A    A  R   R   N   NN  II  N   NN  G    G                |
|           W    W  A    A  R    R  N    N  II  N    N   GGGG   !!!           |
|                                                                             |
|      For optimal performance we recommend to set                            |
|        NCORE= 4 - approx SQRT( number of cores)                             |
|      NCORE specifies how many cores store one orbital (NPAR=cpu/NCORE).     |
|      This setting can  greatly improve the performance of VASP for DFT.     |
|      The default, NPAR=number of cores might be grossly inefficient         |
|      on modern multi-core architectures or massively parallel machines.     |
|      Do your own testing !!!!                                               |
|      Unfortunately you need to use the default for GW and RPA calculations. |
|      (for HF NCORE is supported but not extensively tested yet)             |
|                                                                             |
 ----------------------------------------------------------------------------- 

 POTCAR:    PAW_PBE Ti_pv 07Sep2000               
   VRHFIN =Ti: d3 s1                                                            
   LEXCH  = PE                                                                  
   EATOM  =  1042.5995 eV,   76.6289 Ry                                         
                                                                                
   TITEL  = PAW_PBE Ti_pv 07Sep2000                                             
   LULTRA =        F    use ultrasoft PP ?                                      
   IUNSCR =        1    unscreen: 0-lin 1-nonlin 2-no                           
   RPACOR =    2.200    partial core radius                                     
   POMASS =   47.880; ZVAL   =   10.000    mass and valenz                      
   RCORE  =    2.500    outmost cutoff radius                                   
   RWIGS  =    2.500; RWIGS  =    1.323    wigner-seitz radius (au A)           
   ENMAX  =  222.335; ENMIN  =  166.751 eV                                      
   RCLOC  =    1.701    cutoff for local pot                                    
   LCOR   =        T    correct aug charges                                     
   LPAW   =        T    paw PP                                                  
   EAUG   =  482.848                                                            
   DEXC   =    0.000                                                            
   RMAX   =    2.564    core radius for proj-oper                               
   RAUG   =    1.300    factor for augmentation sphere                          
   RDEP   =    2.538    radius for radial grids                                 
   RDEPT  =    1.952    core radius for aug-charge                              
                                                                                
   Atomic configuration                                                         
    8 entries                                                                   
     n  l   j            E        occ.                                          
     1  0  0.50     -4865.3608   2.0000                                         
     2  0  0.50      -533.1368   2.0000                                         
     2  1  1.50      -440.5031   6.0000                                         
     3  0  0.50       -59.3186   2.0000                                         
     3  1  1.50       -35.7012   6.0000                                         
     3  2  2.50        -1.9157   3.0000                                         
     4  0  0.50        -3.7291   1.0000                                         
     4  3  2.50        -1.3606   0.0000                                         
   Description                                                                  
     l       E           TYP  RCUT    TYP  RCUT                                 
     1    -35.7012140     23  2.300                                             
     1     -1.3605826     23  2.300                                             
     2     -1.9156996     23  2.500                                             
     2     -0.4063033     23  2.500                                             
     0     -3.7290856     23  2.500                                             
     0     20.4087390     23  2.500                                             
  local pseudopotential read in
  partial core-charges read in
  partial kinetic energy density read in
  atomic valenz-charges read in
  non local Contribution for L=           1  read in
    real space projection operators read in
  non local Contribution for L=           1  read in
    real space projection operators read in
  non local Contribution for L=           2  read in
    real space projection operators read in
  non local Contribution for L=           2  read in
    real space projection operators read in
  non local Contribution for L=           0  read in
    real space projection operators read in
  non local Contribution for L=           0  read in
    real space projection operators read in
    PAW grid and wavefunctions read in
 
   number of l-projection  operators is LMAX  =           6
   number of lm-projection operators is LMMAX =          18
 
 POTCAR:    PAW_PBE Ca_pv 06Sep2000               
   VRHFIN =Ca: p6s2d0.01                                                        
   LEXCH  = PE                                                                  
   EATOM  =   612.6676 eV,   45.0298 Ry                                         
                                                                                
   TITEL  = PAW_PBE Ca_pv 06Sep2000                                             
   LULTRA =        F    use ultrasoft PP ?                                      
   IUNSCR =        1    unscreen: 0-lin 1-nonlin 2-no                           
   RPACOR =    2.300    partial core radius                                     
   POMASS =   40.078; ZVAL   =    8.000    mass and valenz                      
   RCORE  =    3.000    outmost cutoff radius                                   
   RWIGS  =    3.300; RWIGS  =    1.746    wigner-seitz radius (au A)           
   ENMAX  =  119.559; ENMIN  =   89.670 eV                                      
   RCLOC  =    1.709    cutoff for local pot                                    
   LCOR   =        T    correct aug charges                                     
   LPAW   =        T    paw PP                                                  
   EAUG   =  325.799                                                            
   DEXC   =    0.000                                                            
   RMAX   =    3.072    core radius for proj-oper                               
   RAUG   =    1.300    factor for augmentation sphere                          
   RDEP   =    3.090    radius for radial grids                                 
   RDEPT  =    2.377    core radius for aug-charge                              
                                                                                
   Atomic configuration                                                         
    7 entries                                                                   
     n  l   j            E        occ.                                          
     1  0  0.50     -3949.1705   2.0000                                         
     2  0  0.50      -414.3434   2.0000                                         
     2  1  1.50      -334.7047   6.0000                                         
     3  0  0.50       -47.0896   2.0000                                         
     3  1  1.50       -28.0061   6.0000                                         
     4  0  0.50        -3.7663   2.0000                                         
     3  2  1.50        -4.0817   0.0000                                         
   Description                                                                  
     l       E           TYP  RCUT    TYP  RCUT                                 
     1    -28.0060855     23  3.000                                             
     1      1.3605826     23  3.000                                             
     0     -3.7663320     23  3.000                                             
     0      4.1207953     23  3.000                                             
     2     -4.0817478     23  3.000                                             
     2     -0.8716232     23  3.000                                             
  local pseudopotential read in
  partial core-charges read in
  partial kinetic energy density read in
  atomic valenz-charges read in
  non local Contribution for L=           1  read in
    real space projection operators read in
  non local Contribution for L=           1  read in
    real space projection operators read in
  non local Contribution for L=           0  read in
    real space projection operators read in
  non local Contribution for L=           0  read in
    real space projection operators read in
  non local Contribution for L=           2  read in
    real space projection operators read in
  non local Contribution for L=           2  read in
    real space projection operators read in
    PAW grid and wavefunctions read in
 
   number of l-projection  operators is LMAX  =           6
   number of lm-projection operators is LMMAX =          18
 
 POTCAR:    PAW_PBE O 08Apr2002                   
   VRHFIN =O: s2p4                                                              
   LEXCH  = PE                                                                  
   EATOM  =   432.3788 eV,   31.7789 Ry                                         
                                                                                
   TITEL  = PAW_PBE O 08Apr2002                                                 
   LULTRA =        F    use ultrasoft PP ?                                      
   IUNSCR =        1    unscreen: 0-lin 1-nonlin 2-no                           
   RPACOR =    1.200    partial core radius                                     
   POMASS =   16.000; ZVAL   =    6.000    mass and valenz                      
   RCORE  =    1.520    outmost cutoff radius                                   
   RWIGS  =    1.550; RWIGS  =    0.820    wigner-seitz radius (au A)           
   ENMAX  =  400.000; ENMIN  =  300.000 eV                                      
   ICORE  =        2    local potential                                         
   LCOR   =        T    correct aug charges                                     
   LPAW   =        T    paw PP                                                  
   EAUG   =  605.392                                                            
   DEXC   =    0.000                                                            
   RMAX   =    1.553    core radius for proj-oper                               
   RAUG   =    1.300    factor for augmentation sphere                          
   RDEP   =    1.550    radius for radial grids                                 
   RDEPT  =    1.329    core radius for aug-charge                              
                                                                                
   Atomic configuration                                                         
    4 entries                                                                   
     n  l   j            E        occ.                                          
     1  0  0.50      -514.6923   2.0000                                         
     2  0  0.50       -23.9615   2.0000                                         
     2  1  0.50        -9.0305   4.0000                                         
     3  2  1.50        -9.5241   0.0000                                         
   Description                                                                  
     l       E           TYP  RCUT    TYP  RCUT                                 
     0    -23.9615318     23  1.200                                             
     0     -9.5240782     23  1.200                                             
     1     -9.0304911     23  1.520                                             
     1      8.1634956     23  1.520                                             
     2     -9.5240782      7  1.500                                             
  local pseudopotential read in
  partial core-charges read in
  partial kinetic energy density read in
  kinetic energy density of atom read in
  atomic valenz-charges read in
  non local Contribution for L=           0  read in
    real space projection operators read in
  non local Contribution for L=           0  read in
    real space projection operators read in
  non local Contribution for L=           1  read in
    real space projection operators read in
  non local Contribution for L=           1  read in
    real space projection operators read in
    PAW grid and wavefunctions read in
 
   number of l-projection  operators is LMAX  =           4
   number of lm-projection operators is LMMAX =           8
 
  PAW_PBE Ti_pv 07Sep2000               :
 energy of atom  1       EATOM=-1042.5995
 kinetic energy error for atom=    0.0037 (will be added to EATOM!!)
  PAW_PBE Ca_pv 06Sep2000               :
 energy of atom  2       EATOM= -612.6676
 kinetic energy error for atom=    0.0002 (will be added to EATOM!!)
  PAW_PBE O 08Apr2002                   :
 energy of atom  3       EATOM= -432.3788
 kinetic energy error for atom=    0.1156 (will be added to EATOM!!)
 
 
 POSCAR: CaTiO3                                  
  positions in direct lattice
  velocities in cartesian coordinates
  No initial velocities read in
 exchange correlation table for  LEXCH =        8
   RHO(1)=    0.500       N(1)  =     2000
   RHO(2)=  100.500       N(2)  =     4000

 VTST: version 3.1, (03/28/14)

 CHAIN: initializing optimizer
 
 OPT: Using VASP Conjugate-Gradient optimizer
 CHAIN: Read ICHAIN            0
 
 POSCAR: CaTiO3                                  
  positions in direct lattice
  velocities in cartesian coordinates
  No initial velocities read in
 


--------------------------------------------------------------------------------------------------------


 ion  position               nearest neighbor table
   1  0.010  0.010  0.010-   3 1.90   4 1.90   5 1.90   5 1.98   4 1.98   3 1.98   2 3.29   2 3.34
                             2 3.34   2 3.34   2 3.39   2 3.39   2 3.39   2 3.43
   2  0.500  0.500  0.500-   3 2.75   4 2.75   5 2.75   3 2.75   4 2.75   3 2.75   5 2.75   3 2.75
                             4 2.75   5 2.75   4 2.75   5 2.75   1 3.29   1 3.34   1 3.34   1 3.34
   3  0.500  0.000  0.000-   1 1.90   1 1.98   2 2.75   2 2.75   2 2.75   2 2.75
   4  0.000  0.500  0.000-   1 1.90   1 1.98   2 2.75   2 2.75   2 2.75   2 2.75
   5  0.000  0.000  0.500-   1 1.90   1 1.98   2 2.75   2 2.75   2 2.75   2 2.75
 
  LATTYP: Found a simple cubic cell.
 ALAT       =     3.8822000000
  
  Lattice vectors:
  
 A1 = (   3.8822000000,   0.0000000000,   0.0000000000)
 A2 = (   0.0000000000,   3.8822000000,   0.0000000000)
 A3 = (   0.0000000000,   0.0000000000,   3.8822000000)


Analysis of symmetry for initial positions (statically):
=====================================================================
 Subroutine PRICEL returns:
 Original cell was already a primitive cell.
 

 Routine SETGRP: Setting up the symmetry group for a 
 simple cubic supercell.


 Subroutine GETGRP returns: Found  6 space group operations
 (whereof  6 operations were pure point group operations)
 out of a pool of 48 trial point group operations.


The static configuration has the point symmetry C_3v.


Analysis of symmetry for dynamics (positions and initial velocities):
=====================================================================
 Subroutine PRICEL returns:
 Original cell was already a primitive cell.
 

 Routine SETGRP: Setting up the symmetry group for a 
 simple cubic supercell.


 Subroutine GETGRP returns: Found  6 space group operations
 (whereof  6 operations were pure point group operations)
 out of a pool of 48 trial point group operations.


The dynamic configuration has the point symmetry C_3v.
 
 
 KPOINTS: k-points                                

Automatic generation of k-mesh.
Space group operators:
 irot       det(A)        alpha          n_x          n_y          n_z        tau_x        tau_y        tau_z
    1     1.000000     0.000000     1.000000     0.000000     0.000000     0.000000     0.000000     0.000000
    2     1.000000   120.000000    -0.577350    -0.577350    -0.577350     0.000000     0.000000     0.000000
    3     1.000000   120.000000     0.577350     0.577350     0.577350     0.000000     0.000000     0.000000
    4    -1.000000   180.000000     0.000000    -0.707107     0.707107     0.000000     0.000000     0.000000
    5    -1.000000   180.000000     0.707107    -0.707107     0.000000     0.000000     0.000000     0.000000
    6    -1.000000   180.000000     0.707107     0.000000    -0.707107     0.000000     0.000000     0.000000
 
 Subroutine IBZKPT returns following result:
 ===========================================
 
 Found     19 irreducible k-points:
 
 Following reciprocal coordinates:
            Coordinates               Weight
  0.000000  0.000000  0.000000      1.000000
  0.200000  0.000000  0.000000      6.000000
  0.400000  0.000000  0.000000      6.000000
  0.200000  0.200000  0.000000      6.000000
  0.400000  0.200000  0.000000     12.000000
 -0.400000  0.200000  0.000000     12.000000
 -0.200000  0.200000  0.000000      6.000000
  0.400000  0.400000  0.000000      6.000000
 -0.400000  0.400000  0.000000      6.000000
  0.200000  0.200000  0.200000      2.000000
  0.400000  0.200000  0.200000      6.000000
 -0.400000  0.200000  0.200000      6.000000
 -0.200000  0.200000  0.200000      6.000000
  0.400000  0.400000  0.200000      6.000000
 -0.400000  0.400000  0.200000     12.000000
 -0.200000  0.400000  0.200000     12.000000
 -0.400000 -0.400000  0.200000      6.000000
  0.400000  0.400000  0.400000      2.000000
 -0.400000  0.400000  0.400000      6.000000
 
 Following cartesian coordinates:
            Coordinates               Weight
  0.000000  0.000000  0.000000      1.000000
  0.200000  0.000000  0.000000      6.000000
  0.400000  0.000000  0.000000      6.000000
  0.200000  0.200000  0.000000      6.000000
  0.400000  0.200000  0.000000     12.000000
 -0.400000  0.200000  0.000000     12.000000
 -0.200000  0.200000  0.000000      6.000000
  0.400000  0.400000  0.000000      6.000000
 -0.400000  0.400000  0.000000      6.000000
  0.200000  0.200000  0.200000      2.000000
  0.400000  0.200000  0.200000      6.000000
 -0.400000  0.200000  0.200000      6.000000
 -0.200000  0.200000  0.200000      6.000000
  0.400000  0.400000  0.200000      6.000000
 -0.400000  0.400000  0.200000     12.000000
 -0.200000  0.400000  0.200000     12.000000
 -0.400000 -0.400000  0.200000      6.000000
  0.400000  0.400000  0.400000      2.000000
 -0.400000  0.400000  0.400000      6.000000
 


--------------------------------------------------------------------------------------------------------




 Dimension of arrays:
   k-points           NKPTS =     19   k-points in BZ     NKDIM =     19   number of bands    NBANDS=     22
   number of dos      NEDOS =    301   number of ions     NIONS =      5
   non local maximal  LDIM  =      6   non local SUM 2l+1 LMDIM =     18
   total plane-waves  NPLWV =   8000
   max r-space proj   IRMAX =      1   max aug-charges    IRDMAX=   9776
   dimension x,y,z NGX =    20 NGY =   20 NGZ =   20
   dimension x,y,z NGXF=    40 NGYF=   40 NGZF=   40
   support grid    NGXF=    40 NGYF=   40 NGZF=   40
   ions per type =               1   1   3
 NGX,Y,Z   is equivalent  to a cutoff of   8.56,  8.56,  8.56 a.u.
 NGXF,Y,Z  is equivalent  to a cutoff of  17.13, 17.13, 17.13 a.u.


 I would recommend the setting:
   dimension x,y,z NGX =    19 NGY =   19 NGZ =   19
 SYSTEM =  unknown system                          
 POSCAR =  CaTiO3                                  

 Startparameter for this run:
   NWRITE =      2    write-flag & timer
   PREC   = normal    normal or accurate (medium, high low for compatibility)
   ISTART =      1    job   : 0-new  1-cont  2-samecut
   ICHARG =      0    charge: 1-file 2-atom 10-const
   ISPIN  =      1    spin polarized calculation?
   LNONCOLLINEAR =      F non collinear calculations
   LSORBIT =      F    spin-orbit coupling
   INIWAV =      1    electr: 0-lowe 1-rand  2-diag
   LASPH  =      F    aspherical Exc in radial PAW
   METAGGA=      F    non-selfconsistent MetaGGA calc.

 Electronic Relaxation 1
   ENCUT  =  400.0 eV  29.40 Ry    5.42 a.u.   6.33  6.33  6.33*2*pi/ulx,y,z
   ENINI  =  400.0     initial cutoff
   ENAUG  =  605.4 eV  augmentation charge cutoff
   NELM   =     60;   NELMIN=  2; NELMDL=  0     # of ELM steps 
   EDIFF  = 0.1E-03   stopping-criterion for ELM
   LREAL  =      F    real-space projection
   NLSPLINE    = F    spline interpolate recip. space projectors
   LCOMPAT=      F    compatible to vasp.4.4
   GGA_COMPAT  = T    GGA compatible to vasp.4.4-vasp.4.6
   LMAXPAW     = -100 max onsite density
   LMAXMIX     =    2 max onsite mixed and CHGCAR
   VOSKOWN=      0    Vosko Wilk Nusair interpolation
   ROPT   =    0.00000   0.00000   0.00000
 Ionic relaxation
   EDIFFG = 0.1E-02   stopping-criterion for IOM
   NSW    =   1024    number of steps for IOM
   NBLOCK =      1;   KBLOCK =   1024    inner block; outer block 
   IBRION =      2    ionic relax: 0-MD 1-quasi-New 2-CG
   NFREE  =      1    steps in history (QN), initial steepest desc. (CG)
   ISIF   =      2    stress and relaxation
   IWAVPR =     11    prediction:  0-non 1-charg 2-wave 3-comb
   ISYM   =      2    0-nonsym 1-usesym 2-fastsym
   LCORR  =      T    Harris-Foulkes like correction to forces

   POTIM  = 0.5000    time-step for ionic-motion
   TEIN   =    0.0    initial temperature
   TEBEG  =    0.0;   TEEND  =   0.0 temperature during run
   SMASS  =  -3.00    Nose mass-parameter (am)
   estimated Nose-frequenzy (Omega)   =  0.10E-29 period in steps =****** mass=  -0.344E-27a.u.
   SCALEE = 1.0000    scale energy and forces
   NPACO  =    256;   APACO  = 16.0  distance and # of slots for P.C.
   PSTRESS=    0.0 pullay stress

  Mass of Ions in am
   POMASS =  47.88 40.08 16.00
  Ionic Valenz
   ZVAL   =  10.00  8.00  6.00
  Atomic Wigner-Seitz radii
   RWIGS  =  -1.00 -1.00 -1.00
  virtual crystal weights 
   VCA    =   1.00  1.00  1.00
   NELECT =      36.0000    total number of electrons
   NUPDOWN=      -1.0000    fix difference up-down

 DOS related values:
   EMIN   =  10.00;   EMAX   =-10.00  energy-range for DOS
   EFERMI =   0.00
   ISMEAR =     1;   SIGMA  =   0.20  broadening in eV -4-tet -1-fermi 0-gaus

 Electronic relaxation 2 (details)
   IALGO  =     38    algorithm
   LDIAG  =      T    sub-space diagonalisation (order eigenvalues)
   LSUBROT=      F    optimize rotation matrix (better conditioning)
   TURBO    =      0    0=normal 1=particle mesh
   IRESTART =      0    0=no restart 2=restart with 2 vectors
   NREBOOT  =      0    no. of reboots
   NMIN     =      0    reboot dimension
   EREF     =   0.00    reference energy to select bands
   IMIX   =      4    mixing-type and parameters
     AMIX     =   0.40;   BMIX     =  1.00
     AMIX_MAG =   1.60;   BMIX_MAG =  1.00
     AMIN     =   0.10
     WC   =   100.;   INIMIX=   1;  MIXPRE=   1;  MAXMIX= -45

 Intra band minimization:
   WEIMIN = 0.0010     energy-eigenvalue tresh-hold
   EBREAK =  0.11E-05  absolut break condition
   DEPER  =   0.30     relativ break condition  

   TIME   =   0.40     timestep for ELM

  volume/ion in A,a.u.               =      11.70        78.97
  Fermi-wavevector in a.u.,A,eV,Ry     =   1.392401  2.631257 26.378723  1.938781
  Thomas-Fermi vector in A             =   2.516148
 
 Write flags
   LWAVE  =      T    write WAVECAR
   LCHARG =      T    write CHGCAR
   LVTOT  =      F    write LOCPOT, total local potential
   LVHAR  =      F    write LOCPOT, Hartree potential only
   LELF   =      F    write electronic localiz. function (ELF)
   LORBIT =      0    0 simple, 1 ext, 2 COOP (PROOUT)


 Dipole corrections
   LMONO  =      F    monopole corrections only (constant potential shift)
   LDIPOL =      F    correct potential (dipole corrections)
   IDIPOL =      0    1-x, 2-y, 3-z, 4-all directions 
   EPSILON=  1.0000000 bulk dielectric constant

 Exchange correlation treatment:
   GGA     =    --    GGA type
   LEXCH   =     8    internal setting for exchange type
   VOSKOWN=      0    Vosko Wilk Nusair interpolation
   LHFCALC =     F    Hartree Fock is set to
   LHFONE  =     F    Hartree Fock one center treatment
   AEXX    =    0.0000 exact exchange contribution

 Linear response parameters
   LEPSILON=     F    determine dielectric tensor
   LRPA    =     F    only Hartree local field effects (RPA)
   LNABLA  =     F    use nabla operator in PAW spheres
   LVEL    =     F    velocity operator in full k-point grid
   LINTERFAST=   F  fast interpolation
   KINTER  =     0    interpolate to denser k-point grid
   CSHIFT  =0.1000    complex shift for real part using Kramers Kronig
   OMEGAMAX=  -1.0    maximum frequency
   DEG_THRESHOLD= 0.2000000E-02 threshold for treating states as degnerate
   RTIME   =    0.100 relaxation time in fs

 Orbital magnetization related:
   ORBITALMAG=     F  switch on orbital magnetization
   LCHIMAG   =     F  perturbation theory with respect to B field
   DQ        =  0.001000  dq finite difference perturbation B field



--------------------------------------------------------------------------------------------------------


 conjugate gradient relaxation of ions
 charge density and potential will be updated during run
 non-spin polarized calculation
 Variant of blocked Davidson
 Davidson routine will perform the subspace rotation
 perform sub-space diagonalisation
    after iterative eigenvector-optimisation
 modified Broyden-mixing scheme, WC =      100.0
 initial mixing is a Kerker type mixing with AMIX =  0.4000 and BMIX =      1.0000
 Hartree-type preconditioning will be used
 using additional bands            4
 reciprocal scheme for non local part
 use partial core corrections
 calculate Harris-corrections to forces 
   (improved forces if not selfconsistent)
 use gradient corrections 
 use of overlap-Matrix (Vanderbilt PP)
 Methfessel and Paxton  Order N= 1 SIGMA  =   0.20


--------------------------------------------------------------------------------------------------------


  energy-cutoff  :      400.00
  volume of cell :       58.51
      direct lattice vectors                 reciprocal lattice vectors
     3.882200000  0.000000000  0.000000000     0.257585905  0.000000000  0.000000000
     0.000000000  3.882200000  0.000000000     0.000000000  0.257585905  0.000000000
     0.000000000  0.000000000  3.882200000     0.000000000  0.000000000  0.257585905

  length of vectors
     3.882200000  3.882200000  3.882200000     0.257585905  0.257585905  0.257585905


 
 old parameters found on file WAVECAR:
  energy-cutoff  :      400.00
  volume of cell :       58.51
      direct lattice vectors                 reciprocal lattice vectors
     3.882200000  0.000000000  0.000000000     0.257585905  0.000000000  0.000000000
     0.000000000  3.882200000  0.000000000     0.000000000  0.257585905  0.000000000
     0.000000000  0.000000000  3.882200000     0.000000000  0.000000000  0.257585905

  length of vectors

 
 k-points in units of 2pi/SCALE and weight: k-points                                
   0.00000000  0.00000000  0.00000000       0.008
   0.20000000  0.00000000  0.00000000       0.048
   0.40000000  0.00000000  0.00000000       0.048
   0.20000000  0.20000000  0.00000000       0.048
   0.40000000  0.20000000  0.00000000       0.096
  -0.40000000  0.20000000  0.00000000       0.096
  -0.20000000  0.20000000  0.00000000       0.048
   0.40000000  0.40000000  0.00000000       0.048
  -0.40000000  0.40000000  0.00000000       0.048
   0.20000000  0.20000000  0.20000000       0.016
   0.40000000  0.20000000  0.20000000       0.048
  -0.40000000  0.20000000  0.20000000       0.048
  -0.20000000  0.20000000  0.20000000       0.048
   0.40000000  0.40000000  0.20000000       0.048
  -0.40000000  0.40000000  0.20000000       0.096
  -0.20000000  0.40000000  0.20000000       0.096
  -0.40000000 -0.40000000  0.20000000       0.048
   0.40000000  0.40000000  0.40000000       0.016
  -0.40000000  0.40000000  0.40000000       0.048
 
 k-points in reciprocal lattice and weights: k-points                                
   0.00000000  0.00000000  0.00000000       0.008
   0.20000000  0.00000000  0.00000000       0.048
   0.40000000  0.00000000  0.00000000       0.048
   0.20000000  0.20000000  0.00000000       0.048
   0.40000000  0.20000000  0.00000000       0.096
  -0.40000000  0.20000000  0.00000000       0.096
  -0.20000000  0.20000000  0.00000000       0.048
   0.40000000  0.40000000  0.00000000       0.048
  -0.40000000  0.40000000  0.00000000       0.048
   0.20000000  0.20000000  0.20000000       0.016
   0.40000000  0.20000000  0.20000000       0.048
  -0.40000000  0.20000000  0.20000000       0.048
  -0.20000000  0.20000000  0.20000000       0.048
   0.40000000  0.40000000  0.20000000       0.048
  -0.40000000  0.40000000  0.20000000       0.096
  -0.20000000  0.40000000  0.20000000       0.096
  -0.40000000 -0.40000000  0.20000000       0.048
   0.40000000  0.40000000  0.40000000       0.016
  -0.40000000  0.40000000  0.40000000       0.048
 
 position of ions in fractional coordinates (direct lattice) 
   0.01000000  0.01000000  0.01000000
   0.50000000  0.50000000  0.50000000
   0.50000000  0.00000000  0.00000000
   0.00000000  0.50000000  0.00000000
   0.00000000  0.00000000  0.50000000
 
 position of ions in cartesian coordinates  (Angst):
   0.03882200  0.03882200  0.03882200
   1.94110000  1.94110000  1.94110000
   1.94110000  0.00000000  0.00000000
   0.00000000  1.94110000  0.00000000
   0.00000000  0.00000000  1.94110000
 


--------------------------------------------------------------------------------------------------------


 k-point  1 :   0.0000 0.0000 0.0000  plane waves:    1045
 k-point  2 :   0.2000 0.0000 0.0000  plane waves:    1069
 k-point  3 :   0.4000 0.0000 0.0000  plane waves:    1064
 k-point  4 :   0.2000 0.2000 0.0000  plane waves:    1073
 k-point  5 :   0.4000 0.2000 0.0000  plane waves:    1072
 k-point  6 :  -0.4000 0.2000 0.0000  plane waves:    1072
 k-point  7 :  -0.2000 0.2000 0.0000  plane waves:    1073
 k-point  8 :   0.4000 0.4000 0.0000  plane waves:    1063
 k-point  9 :  -0.4000 0.4000 0.0000  plane waves:    1063
 k-point 10 :   0.2000 0.2000 0.2000  plane waves:    1066
 k-point 11 :   0.4000 0.2000 0.2000  plane waves:    1068
 k-point 12 :  -0.4000 0.2000 0.2000  plane waves:    1068
 k-point 13 :  -0.2000 0.2000 0.2000  plane waves:    1066
 k-point 14 :   0.4000 0.4000 0.2000  plane waves:    1054
 k-point 15 :  -0.4000 0.4000 0.2000  plane waves:    1054
 k-point 16 :  -0.2000 0.4000 0.2000  plane waves:    1068
 k-point 17 :  -0.4000-0.4000 0.2000  plane waves:    1054
 k-point 18 :   0.4000 0.4000 0.4000  plane waves:    1058
 k-point 19 :  -0.4000 0.4000 0.4000  plane waves:    1058

 maximum and minimum number of plane-waves per node :      1073     1045

 maximum number of plane-waves:      1073
 maximum index in each direction: 
   IXMAX=    6   IYMAX=    6   IZMAX=    6
   IXMIN=   -6   IYMIN=   -6   IZMIN=   -6

 WARNING: aliasing errors must be expected set NGX to  26 to avoid them
 WARNING: aliasing errors must be expected set NGY to  26 to avoid them
 WARNING: aliasing errors must be expected set NGZ to  26 to avoid them
 aliasing errors are usually negligible using standard VASP settings
 and one can safely disregard these warnings

 serial   3D FFT for wavefunctions
 parallel 3D FFT for charge:
    minimum data exchange during FFTs selected (reduces bandwidth)


 total amount of memory used by VASP on root node    40041. kBytes
========================================================================

   base      :      30000. kBytes
   nonl-proj :       8934. kBytes
   fftplans  :        145. kBytes
   grid      :        538. kBytes
   one-center:         77. kBytes
   wavefun   :        347. kBytes
 
     INWAV:  cpu time    0.07: real time    0.07
 Broyden mixing: mesh for mixing (old mesh)
   NGX = 13   NGY = 13   NGZ = 13
  (NGX  = 40   NGY  = 40   NGZ  = 40)
  gives a total of   2197 points

 charge density for first step will be calculated from the start-wavefunctions


--------------------------------------------------------------------------------------------------------


 Maximum index for augmentation-charges          517 (set IRDMAX)


--------------------------------------------------------------------------------------------------------


 initial charge from wavefunction
 First call to EWALD:  gamma=   0.457
 Maximum number of real-space cells 3x 3x 3
 Maximum number of reciprocal cells 3x 3x 3

 FEWALD executed in parallel
    FEWALD:  cpu time    0.00: real time    0.00


----------------------------------------- Iteration    1(   1)  ---------------------------------------


    POTLOK:  cpu time    0.00: real time    0.00
    SETDIJ:  cpu time    0.00: real time    0.00
     EDDAV:  cpu time    0.18: real time    0.18
       DOS:  cpu time    0.00: real time    0.00
    CHARGE:  cpu time    0.00: real time    0.00
    MIXING:  cpu time    0.00: real time    0.00
    --------------------------------------------
      LOOP:  cpu time    0.19: real time    0.19

 eigenvalue-minimisations  :  1078
 total energy-change (2. order) :-0.3976431E+02  (-0.1069538E+03)
 number of electron      36.0000158 magnetization 
 augmentation part       11.6170737 magnetization 

 Broyden mixing:
  rms(total) = 0.19903E+01    rms(broyden)= 0.19900E+01
  rms(prec ) = 0.37893E+01
  weight for this iteration     100.00

 Free energy of the ion-electron system (eV)
  ---------------------------------------------------
  alpha Z        PSCENC =       166.69949767
  Ewald energy   TEWEN  =     -2277.16935736
  -Hartree energ DENC   =      -676.66802220
  -exchange      EXHF   =         0.00000000
  -V(xc)+E(xc)   XCENC  =       137.77699668
  PAW double counting   =      4077.17538015    -4087.59626148
  entropy T*S    EENTRO =        -0.01074726
  eigenvalues    EBANDS =      -332.02454689
  atomic energy  EATOM  =      2952.05274943
  ---------------------------------------------------
  free energy    TOTEN  =       -39.76431125 eV

  energy without entropy =      -39.75356399  energy(sigma->0) =      -39.76072883


--------------------------------------------------------------------------------------------------------




----------------------------------------- Iteration    1(   2)  ---------------------------------------


    POTLOK:  cpu time    0.00: real time    0.00
    SETDIJ:  cpu time    0.00: real time    0.00
     EDDAV:  cpu time    0.29: real time    0.29
       DOS:  cpu time    0.00: real time    0.00
    CHARGE:  cpu time    0.01: real time    0.01
    MIXING:  cpu time    0.00: real time    0.00
    --------------------------------------------
      LOOP:  cpu time    0.30: real time    0.30

 eigenvalue-minimisations  :  1562
 total energy-change (2. order) :-0.2436080E+01  (-0.1095219E+02)
 number of electron      36.0000157 magnetization 
 augmentation part       10.8956443 magnetization 

 Broyden mixing:
  rms(total) = 0.10008E+01    rms(broyden)= 0.10004E+01
  rms(prec ) = 0.23613E+01
  weight for this iteration     100.00

 eigenvalues of (default mixing * dielectric matrix)
  average eigenvalue GAMMA=   0.7082
  0.7082

 Free energy of the ion-electron system (eV)
  ---------------------------------------------------
  alpha Z        PSCENC =       166.69949767
  Ewald energy   TEWEN  =     -2277.16935736
  -Hartree energ DENC   =      -686.98862319
  -exchange      EXHF   =         0.00000000
  -V(xc)+E(xc)   XCENC  =       137.38730099
  PAW double counting   =      3880.01598367    -3887.92212150
  entropy T*S    EENTRO =         0.00755857
  eigenvalues    EBANDS =      -326.28337968
  atomic energy  EATOM  =      2952.05274943
  ---------------------------------------------------
  free energy    TOTEN  =       -42.20039140 eV

  energy without entropy =      -42.20794997  energy(sigma->0) =      -42.20291092


--------------------------------------------------------------------------------------------------------




----------------------------------------- Iteration    1(   3)  ---------------------------------------


    POTLOK:  cpu time    0.00: real time    0.00
    SETDIJ:  cpu time    0.00: real time    0.00
     EDDAV:  cpu time    0.22: real time    0.22
       DOS:  cpu time    0.00: real time    0.00
    CHARGE:  cpu time    0.00: real time    0.00
    MIXING:  cpu time    0.00: real time    0.00
    --------------------------------------------
      LOOP:  cpu time    0.23: real time    0.23

 eigenvalue-minimisations  :  1342
 total energy-change (2. order) : 0.1994835E+01  (-0.9665155E+00)
 number of electron      36.0000159 magnetization 
 augmentation part       11.0360680 magnetization 

 Broyden mixing:
  rms(total) = 0.37963E+00    rms(broyden)= 0.37956E+00
  rms(prec ) = 0.67020E+00
  weight for this iteration     100.00

 eigenvalues of (default mixing * dielectric matrix)
  average eigenvalue GAMMA=   1.1158
  1.5715  0.6601

 Free energy of the ion-electron system (eV)
  ---------------------------------------------------
  alpha Z        PSCENC =       166.69949767
  Ewald energy   TEWEN  =     -2277.16935736
  -Hartree energ DENC   =      -687.71230932
  -exchange      EXHF   =         0.00000000
  -V(xc)+E(xc)   XCENC  =       137.82327613
  PAW double counting   =      3834.31118651    -3842.23326482
  entropy T*S    EENTRO =         0.00698735
  eigenvalues    EBANDS =      -323.98432151
  atomic energy  EATOM  =      2952.05274943
  ---------------------------------------------------
  free energy    TOTEN  =       -40.20555591 eV

  energy without entropy =      -40.21254326  energy(sigma->0) =      -40.20788503


--------------------------------------------------------------------------------------------------------




----------------------------------------- Iteration    1(   4)  ---------------------------------------


    POTLOK:  cpu time    0.00: real time    0.00
    SETDIJ:  cpu time    0.00: real time    0.00
     EDDAV:  cpu time    0.25: real time    0.25
       DOS:  cpu time    0.00: real time    0.00
    CHARGE:  cpu time    0.00: real time    0.00
    MIXING:  cpu time    0.00: real time    0.00
    --------------------------------------------
      LOOP:  cpu time    0.26: real time    0.26

 eigenvalue-minimisations  :  1584
 total energy-change (2. order) : 0.1060510E+00  (-0.2072710E+00)
 number of electron      36.0000161 magnetization 
 augmentation part       11.1459599 magnetization 

 Broyden mixing:
  rms(total) = 0.36062E+00    rms(broyden)= 0.36056E+00
  rms(prec ) = 0.50502E+00
  weight for this iteration     100.00

 eigenvalues of (default mixing * dielectric matrix)
  average eigenvalue GAMMA=   1.3828
  2.2897  0.9294  0.9294

 Free energy of the ion-electron system (eV)
  ---------------------------------------------------
  alpha Z        PSCENC =       166.69949767
  Ewald energy   TEWEN  =     -2277.16935736
  -Hartree energ DENC   =      -684.60611913
  -exchange      EXHF   =         0.00000000
  -V(xc)+E(xc)   XCENC  =       137.75689910
  PAW double counting   =      3685.61798744    -3692.93415146
  entropy T*S    EENTRO =         0.00698631
  eigenvalues    EBANDS =      -327.52399691
  atomic energy  EATOM  =      2952.05274943
  ---------------------------------------------------
  free energy    TOTEN  =       -40.09950491 eV

  energy without entropy =      -40.10649122  energy(sigma->0) =      -40.10183368


--------------------------------------------------------------------------------------------------------




----------------------------------------- Iteration    1(   5)  ---------------------------------------


    POTLOK:  cpu time    0.00: real time    0.00
    SETDIJ:  cpu time    0.00: real time    0.00
     EDDAV:  cpu time    0.19: real time    0.19
       DOS:  cpu time    0.00: real time    0.00
    CHARGE:  cpu time    0.00: real time    0.00
    MIXING:  cpu time    0.00: real time    0.00
    --------------------------------------------
      LOOP:  cpu time    0.20: real time    0.20

 eigenvalue-minimisations  :  1320
 total energy-change (2. order) : 0.2211666E-01  (-0.8797083E-01)
 number of electron      36.0000161 magnetization 
 augmentation part       11.0910545 magnetization 

 Broyden mixing:
  rms(total) = 0.99889E-01    rms(broyden)= 0.99851E-01
  rms(prec ) = 0.23878E+00
  weight for this iteration     100.00

 eigenvalues of (default mixing * dielectric matrix)
  average eigenvalue GAMMA=   1.4246
  2.6285  1.3951  0.8373  0.8373

 Free energy of the ion-electron system (eV)
  ---------------------------------------------------
  alpha Z        PSCENC =       166.69949767
  Ewald energy   TEWEN  =     -2277.16935736
  -Hartree energ DENC   =      -683.88072769
  -exchange      EXHF   =         0.00000000
  -V(xc)+E(xc)   XCENC  =       137.59344086
  PAW double counting   =      3567.27927382    -3573.94239200
  entropy T*S    EENTRO =         0.00692299
  eigenvalues    EBANDS =      -328.71679598
  atomic energy  EATOM  =      2952.05274943
  ---------------------------------------------------
  free energy    TOTEN  =       -40.07738825 eV

  energy without entropy =      -40.08431125  energy(sigma->0) =      -40.07969592


--------------------------------------------------------------------------------------------------------




----------------------------------------- Iteration    1(   6)  ---------------------------------------


    POTLOK:  cpu time    0.00: real time    0.00
    SETDIJ:  cpu time    0.00: real time    0.00
     EDDAV:  cpu time    0.22: real time    0.22
       DOS:  cpu time    0.00: real time    0.00
    CHARGE:  cpu time    0.00: real time    0.00
    MIXING:  cpu time    0.00: real time    0.00
    --------------------------------------------
      LOOP:  cpu time    0.22: real time    0.22

 eigenvalue-minimisations  :  1430
 total energy-change (2. order) : 0.1145173E-01  (-0.3128527E-01)
 number of electron      36.0000161 magnetization 
 augmentation part       11.1313701 magnetization 

 Broyden mixing:
  rms(total) = 0.70177E-01    rms(broyden)= 0.70154E-01
  rms(prec ) = 0.14023E+00
  weight for this iteration     100.00

 eigenvalues of (default mixing * dielectric matrix)
  average eigenvalue GAMMA=   1.3946
  2.7217  0.7862  0.7862  1.3394  1.3394

 Free energy of the ion-electron system (eV)
  ---------------------------------------------------
  alpha Z        PSCENC =       166.69949767
  Ewald energy   TEWEN  =     -2277.16935736
  -Hartree energ DENC   =      -683.71731621
  -exchange      EXHF   =         0.00000000
  -V(xc)+E(xc)   XCENC  =       137.64757571
  PAW double counting   =      3520.18623578    -3526.77036302
  entropy T*S    EENTRO =         0.00694587
  eigenvalues    EBANDS =      -329.00190439
  atomic energy  EATOM  =      2952.05274943
  ---------------------------------------------------
  free energy    TOTEN  =       -40.06593652 eV

  energy without entropy =      -40.07288239  energy(sigma->0) =      -40.06825181


--------------------------------------------------------------------------------------------------------




----------------------------------------- Iteration    1(   7)  ---------------------------------------


    POTLOK:  cpu time    0.00: real time    0.00
    SETDIJ:  cpu time    0.00: real time    0.00
     EDDAV:  cpu time    0.26: real time    0.26
       DOS:  cpu time    0.00: real time    0.00
    CHARGE:  cpu time    0.01: real time    0.01
    MIXING:  cpu time    0.00: real time    0.00
    --------------------------------------------
      LOOP:  cpu time    0.27: real time    0.27

 eigenvalue-minimisations  :  1518
 total energy-change (2. order) : 0.4897707E-02  (-0.4955786E-02)
 number of electron      36.0000161 magnetization 
 augmentation part       11.1137300 magnetization 

 Broyden mixing:
  rms(total) = 0.89269E-02    rms(broyden)= 0.89106E-02
  rms(prec ) = 0.16010E-01
  weight for this iteration     100.00

 eigenvalues of (default mixing * dielectric matrix)
  average eigenvalue GAMMA=   1.3582
  2.4444  1.7394  1.3437  0.7852  0.7852  1.0513

 Free energy of the ion-electron system (eV)
  ---------------------------------------------------
  alpha Z        PSCENC =       166.69949767
  Ewald energy   TEWEN  =     -2277.16935736
  -Hartree energ DENC   =      -683.99915572
  -exchange      EXHF   =         0.00000000
  -V(xc)+E(xc)   XCENC  =       137.63899929
  PAW double counting   =      3512.64644574    -3519.18121991
  entropy T*S    EENTRO =         0.00693762
  eigenvalues    EBANDS =      -328.75593557
  atomic energy  EATOM  =      2952.05274943
  ---------------------------------------------------
  free energy    TOTEN  =       -40.06103881 eV

  energy without entropy =      -40.06797643  energy(sigma->0) =      -40.06335135


--------------------------------------------------------------------------------------------------------




----------------------------------------- Iteration    1(   8)  ---------------------------------------


    POTLOK:  cpu time    0.01: real time    0.01
    SETDIJ:  cpu time    0.00: real time    0.00
     EDDAV:  cpu time    0.14: real time    0.14
       DOS:  cpu time    0.00: real time    0.00
    --------------------------------------------
      LOOP:  cpu time    0.16: real time    0.16

 eigenvalue-minimisations  :   924
 total energy-change (2. order) : 0.7421970E-05  (-0.2362373E-04)
 number of electron      36.0000161 magnetization 
 augmentation part       11.1137300 magnetization 

 Free energy of the ion-electron system (eV)
  ---------------------------------------------------
  alpha Z        PSCENC =       166.69949767
  Ewald energy   TEWEN  =     -2277.16935736
  -Hartree energ DENC   =      -683.99134608
  -exchange      EXHF   =         0.00000000
  -V(xc)+E(xc)   XCENC  =       137.64005171
  PAW double counting   =      3516.43975303    -3522.99992086
  entropy T*S    EENTRO =         0.00693669
  eigenvalues    EBANDS =      -328.73939563
  atomic energy  EATOM  =      2952.05274943
  ---------------------------------------------------
  free energy    TOTEN  =       -40.06103139 eV

  energy without entropy =      -40.06796808  energy(sigma->0) =      -40.06334362


--------------------------------------------------------------------------------------------------------




 average (electrostatic) potential at core
  the test charge radii are     1.0397  1.2658  0.7215
  (the norm of the test charge is              1.0000)
       1 -53.0837       2 -45.6341       3 -70.0986       4 -70.0986       5 -70.0986
 
 
 
 E-fermi :   3.6881     XC(G=0): -11.0109     alpha+bet :-13.2781


 k-point     1 :       0.0000    0.0000    0.0000
  band No.  band energies     occupation 
      1     -28.9862      2.00000
      2     -28.9862      2.00000
      3     -28.9847      2.00000
      4     -16.6018      2.00000
      5     -16.6009      2.00000
      6     -16.6009      2.00000
      7     -13.8707      2.00000
      8     -12.7716      2.00000
      9     -12.7716      2.00000
     10       0.6579      2.00000
     11       0.6579      2.00000
     12       0.6604      2.00000
     13       2.5430      2.00000
     14       2.5430      2.00000
     15       2.5730      2.00000
     16       3.2146      2.00410
     17       3.2475      2.00786
     18       3.2475      2.00786
     19       5.6674     -0.00000
     20       5.6674     -0.00000
     21       5.6997     -0.00000
     22       8.1269     -0.00000

 k-point     2 :       0.2000    0.0000    0.0000
  band No.  band energies     occupation 
      1     -29.0122      2.00000
      2     -28.9851      2.00000
      3     -28.9841      2.00000
      4     -16.6850      2.00000
      5     -16.5979      2.00000
      6     -16.5973      2.00000
      7     -13.6516      2.00000
      8     -12.7616      2.00000
      9     -12.6671      2.00000
     10       0.2326      2.00000
     11       0.6801      2.00000
     12       0.6828      2.00000
     13       2.0149      2.00000
     14       2.0596      2.00000
     15       2.2752      2.00000
     16       2.2769      2.00000
     17       3.0851      2.00017
     18       3.1056      2.00030
     19       5.7374     -0.00000
     20       6.4057     -0.00000
     21       6.4217     -0.00000
     22       8.1580     -0.00000

 k-point     3 :       0.4000    0.0000    0.0000
  band No.  band energies     occupation 
      1     -29.0545      2.00000
      2     -28.9833      2.00000
      3     -28.9823      2.00000
      4     -16.8093      2.00000
      5     -16.5921      2.00000
      6     -16.5914      2.00000
      7     -13.2980      2.00000
      8     -12.7394      2.00000
      9     -12.4821      2.00000
     10      -0.5396      2.00000
     11       0.8191      2.00000
     12       0.8237      2.00000
     13       1.1257      2.00000
     14       1.3390      2.00000
     15       1.3800      2.00000
     16       1.8651      2.00000
     17       2.9713      2.00000
     18       2.9994      2.00001
     19       5.8404     -0.00000
     20       7.4092     -0.00000
     21       7.4275     -0.00000
     22       8.1681     -0.00000

 k-point     4 :       0.2000    0.2000    0.0000
  band No.  band energies     occupation 
      1     -29.0117      2.00000
      2     -29.0106      2.00000
      3     -28.9835      2.00000
      4     -16.6902      2.00000
      5     -16.6466      2.00000
      6     -16.5937      2.00000
      7     -13.4660      2.00000
      8     -12.7049      2.00000
      9     -12.6097      2.00000
     10       0.0194      2.00000
     11       0.4319      2.00000
     12       0.6980      2.00000
     13       1.1335      2.00000
     14       1.7851      2.00000
     15       2.1510      2.00000
     16       2.3599      2.00000
     17       2.8097      2.00000
     18       2.8119      2.00000
     19       6.3724     -0.00000
     20       6.5142     -0.00000
     21       6.7197     -0.00000
     22       8.6241     -0.00000

 k-point     5 :       0.4000    0.2000    0.0000
  band No.  band energies     occupation 
      1     -29.0537      2.00000
      2     -29.0096      2.00000
      3     -28.9818      2.00000
      4     -16.7772      2.00000
      5     -16.6416      2.00000
      6     -16.5874      2.00000
      7     -13.1891      2.00000
      8     -12.6528      2.00000
      9     -12.4310      2.00000
     10      -0.5628      2.00000
     11      -0.0621      2.00000
     12       0.5233      2.00000
     13       0.8132      2.00000
     14       1.2241      2.00000
     15       1.6117      2.00000
     16       2.2585      2.00000
     17       2.6008      2.00000
     18       2.8103      2.00000
     19       6.4994     -0.00000
     20       7.4197     -0.00000
     21       7.4582     -0.00000
     22       8.7596     -0.00000

 k-point     6 :      -0.4000    0.2000    0.0000
  band No.  band energies     occupation 
      1     -29.0537      2.00000
      2     -29.0096      2.00000
      3     -28.9818      2.00000
      4     -16.7771      2.00000
      5     -16.6417      2.00000
      6     -16.5874      2.00000
      7     -13.1890      2.00000
      8     -12.6527      2.00000
      9     -12.4310      2.00000
     10      -0.5719      2.00000
     11      -0.0681      2.00000
     12       0.5411      2.00000
     13       0.8104      2.00000
     14       1.2273      2.00000
     15       1.6118      2.00000
     16       2.2572      2.00000
     17       2.6008      2.00000
     18       2.8109      2.00000
     19       6.4984     -0.00000
     20       7.4192     -0.00000
     21       7.4580     -0.00000
     22       8.7591     -0.00000

 k-point     7 :      -0.2000    0.2000    0.0000
  band No.  band energies     occupation 
      1     -29.0120      2.00000
      2     -29.0104      2.00000
      3     -28.9835      2.00000
      4     -16.6896      2.00000
      5     -16.6472      2.00000
      6     -16.5937      2.00000
      7     -13.4657      2.00000
      8     -12.7047      2.00000
      9     -12.6098      2.00000
     10       0.0111      2.00000
     11       0.4105      2.00000
     12       0.6964      2.00000
     13       1.1656      2.00000
     14       1.7872      2.00000
     15       2.1562      2.00000
     16       2.3540      2.00000
     17       2.8067      2.00000
     18       2.8202      2.00000
     19       6.3592     -0.00000
     20       6.5254     -0.00000
     21       6.7145     -0.00000
     22       8.6239     -0.00000

 k-point     8 :       0.4000    0.4000    0.0000
  band No.  band energies     occupation 
      1     -29.0529      2.00000
      2     -29.0518      2.00000
      3     -28.9801      2.00000
      4     -16.7307      2.00000
      5     -16.7150      2.00000
      6     -16.5803      2.00000
      7     -13.1151      2.00000
      8     -12.3918      2.00000
      9     -12.3361      2.00000
     10      -0.9046      2.00000
     11      -0.6080      2.00000
     12      -0.3788      2.00000
     13       0.8357      2.00000
     14       0.9934      2.00000
     15       1.7577      2.00000
     16       1.8518      2.00000
     17       2.1462      2.00000
     18       3.4734      2.06233
     19       7.4097     -0.00000
     20       7.4541     -0.00000
     21       7.7970     -0.00000
     22       9.0578      0.00000

 k-point     9 :      -0.4000    0.4000    0.0000
  band No.  band energies     occupation 
      1     -29.0530      2.00000
      2     -29.0516      2.00000
      3     -28.9801      2.00000
      4     -16.7300      2.00000
      5     -16.7156      2.00000
      6     -16.5803      2.00000
      7     -13.1151      2.00000
      8     -12.3914      2.00000
      9     -12.3364      2.00000
     10      -0.9154      2.00000
     11      -0.6144      2.00000
     12      -0.3606      2.00000
     13       0.8305      2.00000
     14       0.9991      2.00000
     15       1.7622      2.00000
     16       1.8469      2.00000
     17       2.1460      2.00000
     18       3.4732      2.06247
     19       7.4069     -0.00000
     20       7.4564     -0.00000
     21       7.7978     -0.00000
     22       9.0569      0.00000

 k-point    10 :       0.2000    0.2000    0.2000
  band No.  band energies     occupation 
      1     -29.0106      2.00000
      2     -29.0106      2.00000
      3     -29.0093      2.00000
      4     -16.6891      2.00000
      5     -16.6374      2.00000
      6     -16.6374      2.00000
      7     -13.2841      2.00000
      8     -12.6123      2.00000
      9     -12.6123      2.00000
     10      -0.1523      2.00000
     11       0.4020      2.00000
     12       0.4020      2.00000
     13       1.0776      2.00000
     14       1.0776      2.00000
     15       1.4553      2.00000
     16       2.6676      2.00000
     17       2.6676      2.00000
     18       2.9357      2.00000
     19       6.7187     -0.00000
     20       6.8128     -0.00000
     21       6.8128     -0.00000
     22       9.5094      0.00000

 k-point    11 :       0.4000    0.2000    0.2000
  band No.  band energies     occupation 
      1     -29.0527      2.00000
      2     -29.0087      2.00000
      3     -29.0082      2.00000
      4     -16.7508      2.00000
      5     -16.6417      2.00000
      6     -16.6222      2.00000
      7     -13.0197      2.00000
      8     -12.6164      2.00000
      9     -12.4099      2.00000
     10      -0.5795      2.00000
     11      -0.1238      2.00000
     12       0.1832      2.00000
     13       0.3355      2.00000
     14       0.7064      2.00000
     15       1.3763      2.00000
     16       2.5674      2.00000
     17       2.6504      2.00000
     18       2.9720      2.00001
     19       6.8760     -0.00000
     20       7.4904     -0.00000
     21       7.5300     -0.00000
     22       9.6933      0.00000

 k-point    12 :      -0.4000    0.2000    0.2000
  band No.  band energies     occupation 
      1     -29.0527      2.00000
      2     -29.0087      2.00000
      3     -29.0082      2.00000
      4     -16.7506      2.00000
      5     -16.6419      2.00000
      6     -16.6222      2.00000
      7     -13.0194      2.00000
      8     -12.6165      2.00000
      9     -12.4100      2.00000
     10      -0.5951      2.00000
     11      -0.1335      2.00000
     12       0.1765      2.00000
     13       0.3588      2.00000
     14       0.7137      2.00000
     15       1.3817      2.00000
     16       2.5694      2.00000
     17       2.6533      2.00000
     18       2.9683      2.00000
     19       6.8753     -0.00000
     20       7.4840     -0.00000
     21       7.5314     -0.00000
     22       9.6975      0.00000

 k-point    13 :      -0.2000    0.2000    0.2000
  band No.  band energies     occupation 
      1     -29.0112      2.00000
      2     -29.0106      2.00000
      3     -29.0086      2.00000
      4     -16.6883      2.00000
      5     -16.6382      2.00000
      6     -16.6373      2.00000
      7     -13.2837      2.00000
      8     -12.6125      2.00000
      9     -12.6124      2.00000
     10      -0.1628      2.00000
     11       0.3787      2.00000
     12       0.3901      2.00000
     13       1.0706      2.00000
     14       1.0930      2.00000
     15       1.4963      2.00000
     16       2.6696      2.00000
     17       2.6851      2.00000
     18       2.9294      2.00000
     19       6.6956     -0.00000
     20       6.8113     -0.00000
     21       6.8165     -0.00000
     22       9.5119      0.00000

 k-point    14 :       0.4000    0.4000    0.2000
  band No.  band energies     occupation 
      1     -29.0515      2.00000
      2     -29.0505      2.00000
      3     -29.0066      2.00000
      4     -16.7123      2.00000
      5     -16.6986      2.00000
      6     -16.6162      2.00000
      7     -12.8802      2.00000
      8     -12.4076      2.00000
      9     -12.3615      2.00000
     10      -0.7896      2.00000
     11      -0.5723      2.00000
     12      -0.3708      2.00000
     13       0.1087      2.00000
     14       0.1962      2.00000
     15       0.9751      2.00000
     16       2.7056      2.00000
     17       2.7485      2.00000
     18       3.5056      2.02702
     19       7.5698     -0.00000
     20       7.6128     -0.00000
     21       7.8733     -0.00000
     22       9.7694      0.00000

 k-point    15 :      -0.4000    0.4000    0.2000
  band No.  band energies     occupation 
      1     -29.0517      2.00000
      2     -29.0503      2.00000
      3     -29.0066      2.00000
      4     -16.7116      2.00000
      5     -16.6992      2.00000
      6     -16.6163      2.00000
      7     -12.8801      2.00000
      8     -12.4072      2.00000
      9     -12.3618      2.00000
     10      -0.8032      2.00000
     11      -0.5843      2.00000
     12      -0.3509      2.00000
     13       0.1009      2.00000
     14       0.2012      2.00000
     15       0.9866      2.00000
     16       2.7090      2.00000
     17       2.7474      2.00000
     18       3.5047      2.02856
     19       7.5741     -0.00000
     20       7.6038     -0.00000
     21       7.8729     -0.00000
     22       9.7667      0.00000

 k-point    16 :      -0.2000    0.4000    0.2000
  band No.  band energies     occupation 
      1     -29.0527      2.00000
      2     -29.0095      2.00000
      3     -29.0074      2.00000
      4     -16.7506      2.00000
      5     -16.6413      2.00000
      6     -16.6229      2.00000
      7     -13.0194      2.00000
      8     -12.6165      2.00000
      9     -12.4099      2.00000
     10      -0.5872      2.00000
     11      -0.1335      2.00000
     12       0.1843      2.00000
     13       0.3326      2.00000
     14       0.6962      2.00000
     15       1.4082      2.00000
     16       2.5674      2.00000
     17       2.6643      2.00000
     18       2.9685      2.00000
     19       6.8607     -0.00000
     20       7.4985     -0.00000
     21       7.5184     -0.00000
     22       9.7030      0.00000

 k-point    17 :      -0.4000   -0.4000    0.2000
  band No.  band energies     occupation 
      1     -29.0515      2.00000
      2     -29.0505      2.00000
      3     -29.0066      2.00000
      4     -16.7121      2.00000
      5     -16.6986      2.00000
      6     -16.6164      2.00000
      7     -12.8801      2.00000
      8     -12.4075      2.00000
      9     -12.3615      2.00000
     10      -0.7924      2.00000
     11      -0.5770      2.00000
     12      -0.3784      2.00000
     13       0.0965      2.00000
     14       0.2053      2.00000
     15       0.9975      2.00000
     16       2.7106      2.00000
     17       2.7471      2.00000
     18       3.5049      2.02823
     19       7.5600     -0.00000
     20       7.6154     -0.00000
     21       7.8707     -0.00000
     22       9.7655      0.00000

 k-point    18 :       0.4000    0.4000    0.4000
  band No.  band energies     occupation 
      1     -29.0494      2.00000
      2     -29.0494      2.00000
      3     -29.0481      2.00000
      4     -16.6842      2.00000
      5     -16.6717      2.00000
      6     -16.6717      2.00000
      7     -12.5008      2.00000
      8     -12.4035      2.00000
      9     -12.4035      2.00000
     10      -0.7257      2.00000
     11      -0.4960      2.00000
     12      -0.4624      2.00000
     13      -0.4624      2.00000
     14      -0.3281      2.00000
     15      -0.3281      2.00000
     16       3.4438      2.07091
     17       3.4438      2.07091
     18       3.6010      1.66561
     19       7.9527     -0.00000
     20       8.0153     -0.00000
     21       8.0153     -0.00000
     22       9.6791      0.00000

 k-point    19 :      -0.4000    0.4000    0.4000
  band No.  band energies     occupation 
      1     -29.0498      2.00000
      2     -29.0494      2.00000
      3     -29.0476      2.00000
      4     -16.6834      2.00000
      5     -16.6725      2.00000
      6     -16.6717      2.00000
      7     -12.5004      2.00000
      8     -12.4039      2.00000
      9     -12.4035      2.00000
     10      -0.7367      2.00000
     11      -0.5291      2.00000
     12      -0.4761      2.00000
     13      -0.4642      2.00000
     14      -0.3140      2.00000
     15      -0.2808      2.00000
     16       3.4453      2.07088
     17       3.4456      2.07087
     18       3.5983      1.68145
     19       7.9702     -0.00000
     20       7.9933     -0.00000
     21       8.0174     -0.00000
     22       9.6552      0.00000


--------------------------------------------------------------------------------------------------------


 soft charge-density along one line, spin component           1
         0         1         2         3         4         5         6         7         8         9
 total charge-density along one line
 
 pseudopotential strength for first ion, spin component:           1
-30.194  -0.001  -0.001   7.076   0.000   0.000  -0.001  -0.001
 -0.001 -30.194  -0.001   0.000   7.076   0.000  -0.000  -0.001
 -0.001  -0.001 -30.194   0.000   0.000   7.076  -0.001  -0.000
  7.076   0.000   0.000   3.769  -0.000  -0.000   0.002   0.002
  0.000   7.076   0.000  -0.000   3.769  -0.000   0.000   0.002
  0.000   0.000   7.076  -0.000  -0.000   3.769   0.002   0.000
 -0.001  -0.000  -0.001   0.002   0.000   0.002  -3.644  -0.001
 -0.001  -0.001  -0.000   0.002   0.002   0.000  -0.001  -3.644
  0.004  -0.007   0.004  -0.002   0.004  -0.002   0.000  -0.000
 -0.000  -0.001  -0.001   0.000   0.002   0.002  -0.001  -0.001
  0.006  -0.000  -0.006  -0.004   0.000   0.004  -0.000   0.000
 -0.002  -0.000  -0.002   0.002   0.000   0.002  -3.821  -0.001
 -0.002  -0.002  -0.000   0.002   0.002   0.000  -0.001  -3.821
  0.004  -0.009   0.004  -0.003   0.005  -0.003   0.001  -0.000
 -0.000  -0.002  -0.002   0.000   0.002   0.002  -0.001  -0.001
  0.008  -0.000  -0.008  -0.005   0.000   0.005  -0.000   0.000
  0.003   0.003   0.003  -0.001  -0.001  -0.001   0.000   0.000
  0.009   0.009   0.009  -0.002  -0.002  -0.002   0.001   0.001
 total augmentation occupancy for first ion, spin component:           1
  1.976  -0.000  -0.000  -0.066  -0.000  -0.000  -0.000  -0.000  -0.015   0.000  -0.025   0.001   0.001   0.013  -0.000   0.022
 -0.000   1.976  -0.000  -0.000  -0.066  -0.000   0.000  -0.000   0.029  -0.000   0.000  -0.000   0.001  -0.025   0.001   0.000
 -0.000  -0.000   1.976  -0.000  -0.000  -0.066  -0.000   0.000  -0.015  -0.000   0.025   0.001  -0.000   0.013   0.001  -0.022
 -0.066  -0.000  -0.000   0.339  -0.001  -0.001  -0.020  -0.020  -0.105   0.000  -0.182   0.014   0.014   0.073  -0.000   0.126
 -0.000  -0.066  -0.000  -0.001   0.339  -0.001   0.000  -0.020   0.210  -0.020   0.000  -0.000   0.014  -0.146   0.014   0.000
 -0.000  -0.000  -0.066  -0.001  -0.001   0.339  -0.020   0.000  -0.105  -0.020   0.182   0.014  -0.000   0.073   0.014  -0.126
 -0.000   0.000  -0.000  -0.020   0.000  -0.020   3.756  -0.001   0.056  -0.001   0.000  -2.341   0.001  -0.040   0.001   0.000
 -0.000  -0.000   0.000  -0.020  -0.020   0.000  -0.001   3.756  -0.028  -0.001   0.049   0.001  -2.341   0.020   0.001  -0.035
 -0.015   0.029  -0.015  -0.105   0.210  -0.105   0.056  -0.028  13.499  -0.028   0.000  -0.040   0.020  -9.375   0.020   0.000
  0.000  -0.000  -0.000   0.000  -0.020  -0.020  -0.001  -0.001  -0.028   3.756  -0.049   0.001   0.001   0.020  -2.341   0.035
 -0.025   0.000   0.025  -0.182   0.000   0.182   0.000   0.049   0.000  -0.049  13.499   0.000  -0.035   0.000   0.035  -9.375
  0.001  -0.000   0.001   0.014  -0.000   0.014  -2.341   0.001  -0.040   0.001  -0.000   1.466  -0.000   0.029  -0.000   0.000
  0.001   0.001  -0.000   0.014   0.014  -0.000   0.001  -2.341   0.020   0.001  -0.035  -0.000   1.466  -0.015  -0.000   0.025
  0.013  -0.025   0.013   0.073  -0.146   0.073  -0.040   0.020  -9.375   0.020   0.000   0.029  -0.015   6.581  -0.015   0.000
 -0.000   0.001   0.001  -0.000   0.014   0.014   0.001   0.001   0.020  -2.341   0.035  -0.000  -0.000  -0.015   1.466  -0.025
  0.022   0.000  -0.022   0.126   0.000  -0.126   0.000  -0.035   0.000   0.035  -9.375  -0.000   0.025   0.000  -0.025   6.581
  0.001   0.001   0.001   0.041   0.041   0.041  -0.022  -0.022  -0.000  -0.022   0.000   0.015   0.015   0.000   0.015  -0.000
  0.001   0.001   0.001  -0.001  -0.001  -0.001   0.001   0.001   0.000   0.001   0.000  -0.000  -0.000   0.000  -0.000   0.000


------------------------ aborting loop because EDIFF is reached ----------------------------------------


    CHARGE:  cpu time    0.01: real time    0.01
    FORLOC:  cpu time    0.00: real time    0.00
    FORNL :  cpu time    0.02: real time    0.02
    STRESS:  cpu time    0.24: real time    0.24
    FORCOR:  cpu time    0.00: real time    0.00
    FORHAR:  cpu time    0.00: real time    0.00
    MIXING:  cpu time    0.00: real time    0.00
    OFIELD:  cpu time    0.00: real time    0.00

  FORCE on cell =-STRESS in cart. coord.  units (eV):
  Direction    XX          YY          ZZ          XY          YZ          ZX
  --------------------------------------------------------------------------------------
  Alpha Z   166.69950   166.69950   166.69950
  Ewald    -759.05717  -759.05717  -759.05717    -1.04812    -1.04812    -1.04812
  Hartree   227.98464   227.98464   227.98464    -0.45744    -0.45744    -0.45744
  E(xc)    -170.17308  -170.17308  -170.17308    -0.00192    -0.00192    -0.00192
  Local     -32.88333   -32.88333   -32.88333     1.52093     1.52093     1.52093
  n-local   -90.44071   -88.77703   -85.07608     0.01383    -0.12185     0.06475
  augment   132.97329   132.97329   132.97329    -0.00929    -0.00929    -0.00929
  Kinetic   514.08340   521.32052   528.14564     0.58114    -1.62269     1.10482
  Fock        0.00000     0.00000     0.00000     0.00000     0.00000     0.00000
  -------------------------------------------------------------------------------------
  Total      -1.37090    -1.37090    -1.37090     0.01083     0.01083     0.01083
  in kB     -37.53903   -37.53903   -37.53903     0.29648     0.29648     0.29648
  external pressure =      -37.54 kB  Pullay stress =        0.00 kB


 VOLUME and BASIS-vectors are now :
 -----------------------------------------------------------------------------
  energy-cutoff  :      400.00
  volume of cell :       58.51
      direct lattice vectors                 reciprocal lattice vectors
     3.882200000  0.000000000  0.000000000     0.257585905  0.000000000  0.000000000
     0.000000000  3.882200000  0.000000000     0.000000000  0.257585905  0.000000000
     0.000000000  0.000000000  3.882200000     0.000000000  0.000000000  0.257585905

  length of vectors
     3.882200000  3.882200000  3.882200000     0.257585905  0.257585905  0.257585905


 FORCES acting on ions
    electron-ion (+dipol)            ewald-force                    non-local-force                 convergence-correction
 -----------------------------------------------------------------------------------------------
   0.101E+02 0.101E+02 0.101E+02   -.104E+02 -.104E+02 -.104E+02   0.126E+00 0.126E+00 0.126E+00   0.364E-02 0.364E-02 0.364E-02
   -.310E+01 -.310E+01 -.310E+01   0.321E+01 0.321E+01 0.321E+01   -.107E-01 -.107E-01 -.107E-01   -.395E-02 -.395E-02 -.395E-02
   -.175E+02 0.570E+01 0.570E+01   0.196E+02 -.623E+01 -.623E+01   -.200E+01 0.504E+00 0.504E+00   -.190E-01 0.191E-02 0.191E-02
   0.570E+01 -.175E+02 0.570E+01   -.623E+01 0.196E+02 -.623E+01   0.504E+00 -.200E+01 0.504E+00   0.191E-02 -.190E-01 0.191E-02
   0.570E+01 0.570E+01 -.175E+02   -.623E+01 -.623E+01 0.196E+02   0.504E+00 0.504E+00 -.200E+01   0.191E-02 0.191E-02 -.190E-01
 -----------------------------------------------------------------------------------------------
   0.902E+00 0.902E+00 0.903E+00   0.888E-15 -.888E-15 0.711E-14   -.882E+00 -.882E+00 -.882E+00   -.155E-01 -.155E-01 -.155E-01
 
 
 POSITION                                       TOTAL-FORCE (eV/Angst)
 -----------------------------------------------------------------------------------
      0.03882      0.03882      0.03882        -0.109528     -0.109528     -0.109528
      1.94110      1.94110      1.94110         0.093061      0.093061      0.093061
      1.94110      0.00000      0.00000         0.077173     -0.030353     -0.030353
      0.00000      1.94110      0.00000        -0.030353      0.077173     -0.030353
      0.00000      0.00000      1.94110        -0.030353     -0.030353      0.077173
 -----------------------------------------------------------------------------------
    total drift:                                0.005256      0.005256      0.005289


--------------------------------------------------------------------------------------------------------



  FREE ENERGIE OF THE ION-ELECTRON SYSTEM (eV)
  ---------------------------------------------------
  free  energy   TOTEN  =       -40.06103139 eV

  energy  without entropy=      -40.06796808  energy(sigma->0) =      -40.06334362
 


--------------------------------------------------------------------------------------------------------


    POTLOK:  cpu time    0.01: real time    0.01


--------------------------------------------------------------------------------------------------------


 stress matrix after NEB project (eV)
     -1.37090      0.01083      0.01083
      0.01083     -1.37090      0.01083
      0.01083      0.01083     -1.37090
  FORCES: max atom, RMS     0.189709    0.130664
  FORCE total and by dimension    0.292173    0.109528
  Stress total and by dimension    2.374619    1.370901


--------------------------------------------------------------------------------------------------------


    WAVPRE:  cpu time    0.00: real time    0.00
 FEWALD executed in parallel
    FEWALD:  cpu time    0.00: real time    0.00
    ORTHCH:  cpu time    0.01: real time    0.01
     LOOP+:  cpu time    2.19: real time    2.19


----------------------------------------- Iteration    2(   1)  ---------------------------------------


    POTLOK:  cpu time    0.00: real time    0.00
    SETDIJ:  cpu time    0.00: real time    0.00
     EDDAV:  cpu time    0.16: real time    0.16
       DOS:  cpu time    0.00: real time    0.00
    CHARGE:  cpu time    0.01: real time    0.01
    MIXING:  cpu time    0.00: real time    0.00
    --------------------------------------------
      LOOP:  cpu time    0.18: real time    0.18

 eigenvalue-minimisations  :  1188
 total energy-change (2. order) : 0.5202637E-03  (-0.1070771E+00)
 number of electron      36.0000127 magnetization 
 augmentation part       11.1120277 magnetization 

 Broyden mixing:
  rms(total) = 0.18157E-01    rms(broyden)= 0.18118E-01
  rms(prec ) = 0.32574E-01
  weight for this iteration     100.00

 Free energy of the ion-electron system (eV)
  ---------------------------------------------------
  alpha Z        PSCENC =       166.69949767
  Ewald energy   TEWEN  =     -2277.56760948
  -Hartree energ DENC   =      -683.67985323
  -exchange      EXHF   =         0.00000000
  -V(xc)+E(xc)   XCENC  =       137.63715153
  PAW double counting   =      3515.16895778    -3521.73153572
  entropy T*S    EENTRO =         0.00695504
  eigenvalues    EBANDS =      -328.64683158
  atomic energy  EATOM  =      2952.05274943
  ---------------------------------------------------
  free energy    TOTEN  =       -40.06051855 eV

  energy without entropy =      -40.06747359  energy(sigma->0) =      -40.06283689


--------------------------------------------------------------------------------------------------------




----------------------------------------- Iteration    2(   2)  ---------------------------------------


    POTLOK:  cpu time    0.00: real time    0.00
    SETDIJ:  cpu time    0.00: real time    0.00
     EDDAV:  cpu time    0.11: real time    0.11
       DOS:  cpu time    0.00: real time    0.00
    CHARGE:  cpu time    0.01: real time    0.01
    MIXING:  cpu time    0.00: real time    0.00
    --------------------------------------------
      LOOP:  cpu time    0.12: real time    0.12

 eigenvalue-minimisations  :   836
 total energy-change (2. order) :-0.3593270E-02  (-0.4083088E-02)
 number of electron      36.0000127 magnetization 
 augmentation part       11.1149113 magnetization 

 Broyden mixing:
  rms(total) = 0.14893E-01    rms(broyden)= 0.14888E-01
  rms(prec ) = 0.22393E-01
  weight for this iteration     100.00

 eigenvalues of (default mixing * dielectric matrix)
  average eigenvalue GAMMA=   0.7738
  0.7738

 Free energy of the ion-electron system (eV)
  ---------------------------------------------------
  alpha Z        PSCENC =       166.69949767
  Ewald energy   TEWEN  =     -2277.56760948
  -Hartree energ DENC   =      -683.58063011
  -exchange      EXHF   =         0.00000000
  -V(xc)+E(xc)   XCENC  =       137.63473073
  PAW double counting   =      3512.88941813    -3519.45791353
  entropy T*S    EENTRO =         0.00695446
  eigenvalues    EBANDS =      -328.74130912
  atomic energy  EATOM  =      2952.05274943
  ---------------------------------------------------
  free energy    TOTEN  =       -40.06411182 eV

  energy without entropy =      -40.07106628  energy(sigma->0) =      -40.06642997


--------------------------------------------------------------------------------------------------------




----------------------------------------- Iteration    2(   3)  ---------------------------------------


    POTLOK:  cpu time    0.00: real time    0.00
    SETDIJ:  cpu time    0.00: real time    0.00
     EDDAV:  cpu time    0.26: real time    0.26
       DOS:  cpu time    0.00: real time    0.00
    CHARGE:  cpu time    0.01: real time    0.01
    MIXING:  cpu time    0.00: real time    0.00
    --------------------------------------------
      LOOP:  cpu time    0.28: real time    0.28

 eigenvalue-minimisations  :  1584
 total energy-change (2. order) : 0.6230762E-04  (-0.1185357E-03)
 number of electron      36.0000127 magnetization 
 augmentation part       11.1138618 magnetization 

 Broyden mixing:
  rms(total) = 0.74926E-02    rms(broyden)= 0.74918E-02
  rms(prec ) = 0.11668E-01
  weight for this iteration     100.00

 eigenvalues of (default mixing * dielectric matrix)
  average eigenvalue GAMMA=   1.3062
  0.8909  1.7214

 Free energy of the ion-electron system (eV)
  ---------------------------------------------------
  alpha Z        PSCENC =       166.69949767
  Ewald energy   TEWEN  =     -2277.56760948
  -Hartree energ DENC   =      -683.55663309
  -exchange      EXHF   =         0.00000000
  -V(xc)+E(xc)   XCENC  =       137.63165750
  PAW double counting   =      3510.78816800    -3517.35486403
  entropy T*S    EENTRO =         0.00695336
  eigenvalues    EBANDS =      -328.76396888
  atomic energy  EATOM  =      2952.05274943
  ---------------------------------------------------
  free energy    TOTEN  =       -40.06404951 eV

  energy without entropy =      -40.07100287  energy(sigma->0) =      -40.06636730


--------------------------------------------------------------------------------------------------------




----------------------------------------- Iteration    2(   4)  ---------------------------------------


    POTLOK:  cpu time    0.00: real time    0.00
    SETDIJ:  cpu time    0.00: real time    0.00
     EDDAV:  cpu time    0.15: real time    0.15
       DOS:  cpu time    0.00: real time    0.00
    --------------------------------------------
      LOOP:  cpu time    0.15: real time    0.15

 eigenvalue-minimisations  :   990
 total energy-change (2. order) : 0.4782213E-04  (-0.2561991E-04)
 number of electron      36.0000127 magnetization 
 augmentation part       11.1138618 magnetization 

 Free energy of the ion-electron system (eV)
  ---------------------------------------------------
  alpha Z        PSCENC =       166.69949767
  Ewald energy   TEWEN  =     -2277.56760948
  -Hartree energ DENC   =      -683.53270904
[...]
     17       2.1645      2.00000
     18       3.3873      2.04623
     19       7.4893     -0.00000
     20       7.5241     -0.00000
     21       7.8479     -0.00000
     22       9.1014      0.00000

 k-point     9 :      -0.4000    0.4000    0.0000
  band No.  band energies     occupation 
      1     -28.9976      2.00000
      2     -28.9921      2.00000
      3     -28.9222      2.00000
      4     -16.6210      2.00000
      5     -16.5894      2.00000
      6     -16.4377      2.00000
      7     -13.1219      2.00000
      8     -12.4372      2.00000
      9     -12.3753      2.00000
     10      -0.9557      2.00000
     11      -0.6859      2.00000
     12      -0.2578      2.00000
     13       0.7278      2.00000
     14       0.9253      2.00000
     15       1.7258      2.00000
     16       1.8071      2.00000
     17       2.1681      2.00000
     18       3.3792      2.05456
     19       7.4406     -0.00000
     20       7.5446     -0.00000
     21       7.8632     -0.00000
     22       9.0942      0.00000

 k-point    10 :       0.2000    0.2000    0.2000
  band No.  band energies     occupation 
      1     -28.9550      2.00000
      2     -28.9550      2.00000
      3     -28.9476      2.00000
      4     -16.5840      2.00000
      5     -16.5011      2.00000
      6     -16.5011      2.00000
      7     -13.2905      2.00000
      8     -12.6401      2.00000
      9     -12.6401      2.00000
     10      -0.1510      2.00000
     11       0.3765      2.00000
     12       0.3765      2.00000
     13       0.9553      2.00000
     14       0.9553      2.00000
     15       1.3359      2.00000
     16       2.5254      2.00000
     17       2.5254      2.00000
     18       2.8823      2.00001
     19       6.8994     -0.00000
     20       6.9233     -0.00000
     21       6.9233     -0.00000
     22       9.6949      0.00000

 k-point    11 :       0.4000    0.2000    0.2000
  band No.  band energies     occupation 
      1     -28.9954      2.00000
      2     -28.9530      2.00000
      3     -28.9482      2.00000
      4     -16.6426      2.00000
      5     -16.5155      2.00000
      6     -16.4815      2.00000
      7     -13.0224      2.00000
      8     -12.6543      2.00000
      9     -12.4462      2.00000
     10      -0.5917      2.00000
     11      -0.1424      2.00000
     12       0.1030      2.00000
     13       0.3071      2.00000
     14       0.7166      2.00000
     15       1.3037      2.00000
     16       2.4793      2.00000
     17       2.4941      2.00000
     18       2.9087      2.00002
     19       7.0078     -0.00000
     20       7.5257     -0.00000
     21       7.6170     -0.00000
     22       9.7745      0.00000

 k-point    12 :      -0.4000    0.2000    0.2000
  band No.  band energies     occupation 
      1     -28.9955      2.00000
      2     -28.9530      2.00000
      3     -28.9481      2.00000
      4     -16.6394      2.00000
      5     -16.5173      2.00000
      6     -16.4809      2.00000
      7     -13.0242      2.00000
      8     -12.6557      2.00000
      9     -12.4467      2.00000
     10      -0.6756      2.00000
     11      -0.1980      2.00000
     12       0.0652      2.00000
     13       0.4219      2.00000
     14       0.7843      2.00000
     15       1.3589      2.00000
     16       2.5246      2.00000
     17       2.5344      2.00000
     18       2.8319      2.00000
     19       6.9860     -0.00000
     20       7.4655     -0.00000
     21       7.6514     -0.00000
     22       9.7880      0.00000

 k-point    13 :      -0.2000    0.2000    0.2000
  band No.  band energies     occupation 
      1     -28.9561      2.00000
      2     -28.9550      2.00000
      3     -28.9464      2.00000
      4     -16.5768      2.00000
      5     -16.5059      2.00000
      6     -16.5002      2.00000
      7     -13.2921      2.00000
      8     -12.6426      2.00000
      9     -12.6424      2.00000
     10      -0.2169      2.00000
     11       0.2238      2.00000
     12       0.2879      2.00000
     13       0.9479      2.00000
     14       1.1303      2.00000
     15       1.5812      2.00000
     16       2.5793      2.00000
     17       2.6902      2.00000
     18       2.7214      2.00000
     19       6.6437     -0.00000
     20       6.9647     -0.00000
     21       6.9959     -0.00000
     22       9.4033      0.00000

 k-point    14 :       0.4000    0.4000    0.2000
  band No.  band energies     occupation 
      1     -28.9960      2.00000
      2     -28.9911      2.00000
      3     -28.9486      2.00000
      4     -16.6081      2.00000
      5     -16.5678      2.00000
      6     -16.4781      2.00000
      7     -12.8903      2.00000
      8     -12.4519      2.00000
      9     -12.3972      2.00000
     10      -0.7986      2.00000
     11      -0.5980      2.00000
     12      -0.3309      2.00000
     13       0.0599      2.00000
     14       0.1374      2.00000
     15       1.0075      2.00000
     16       2.5726      2.00000
     17       2.6730      2.00000
     18       3.4188      1.99179
     19       7.6196     -0.00000
     20       7.6719     -0.00000
     21       7.9170     -0.00000
     22       9.7893      0.00000

 k-point    15 :      -0.4000    0.4000    0.2000
  band No.  band energies     occupation 
      1     -28.9964      2.00000
      2     -28.9909      2.00000
      3     -28.9485      2.00000
      4     -16.6034      2.00000
      5     -16.5703      2.00000
      6     -16.4781      2.00000
      7     -12.8957      2.00000
      8     -12.4480      2.00000
      9     -12.3994      2.00000
     10      -0.8507      2.00000
     11      -0.6687      2.00000
     12      -0.2501      2.00000
     13       0.0341      2.00000
     14       0.1661      2.00000
     15       1.0703      2.00000
     16       2.6390      2.00000
     17       2.6734      2.00000
     18       3.3953      2.03583
     19       7.5546     -0.00000
     20       7.6821     -0.00000
     21       7.9362     -0.00000
     22       9.6802      0.00000

 k-point    16 :      -0.2000    0.4000    0.2000
  band No.  band energies     occupation 
      1     -28.9954      2.00000
      2     -28.9544      2.00000
      3     -28.9469      2.00000
      4     -16.6393      2.00000
      5     -16.5133      2.00000
      6     -16.4834      2.00000
      7     -13.0310      2.00000
      8     -12.6484      2.00000
      9     -12.4499      2.00000
     10      -0.6337      2.00000
     11      -0.2340      2.00000
     12       0.1352      2.00000
     13       0.3142      2.00000
     14       0.6626      2.00000
     15       1.4738      2.00000
     16       2.5284      2.00000
     17       2.6680      2.00000
     18       2.8117      2.00000
     19       6.8642     -0.00000
     20       7.5239     -0.00000
     21       7.6308     -0.00000
     22       9.7186      0.00000

 k-point    17 :      -0.4000   -0.4000    0.2000
  band No.  band energies     occupation 
      1     -28.9960      2.00000
      2     -28.9913      2.00000
      3     -28.9484      2.00000
      4     -16.6050      2.00000
      5     -16.5673      2.00000
      6     -16.4786      2.00000
      7     -12.8984      2.00000
      8     -12.4479      2.00000
      9     -12.3986      2.00000
     10      -0.8050      2.00000
     11      -0.6324      2.00000
     12      -0.3823      2.00000
     13      -0.0071      2.00000
     14       0.2109      2.00000
     15       1.1140      2.00000
     16       2.6752      2.00000
     17       2.6758      2.00000
     18       3.3924      2.03989
     19       7.5205     -0.00000
     20       7.7029     -0.00000
     21       7.9251     -0.00000
     22       9.6250      0.00000

 k-point    18 :       0.4000    0.4000    0.4000
  band No.  band energies     occupation 
      1     -28.9938      2.00000
      2     -28.9938      2.00000
      3     -28.9863      2.00000
      4     -16.5844      2.00000
      5     -16.5369      2.00000
      6     -16.5369      2.00000
      7     -12.5111      2.00000
      8     -12.4474      2.00000
      9     -12.4474      2.00000
     10      -0.7991      2.00000
     11      -0.4956      2.00000
     12      -0.4956      2.00000
     13      -0.4291      2.00000
     14      -0.2812      2.00000
     15      -0.2812      2.00000
     16       3.2863      2.05648
     17       3.2863      2.05648
     18       3.5454      1.31696
     19       7.9264     -0.00000
     20       8.0654     -0.00000
     21       8.0654     -0.00000
     22       9.8030      0.00000

 k-point    19 :      -0.4000    0.4000    0.4000
  band No.  band energies     occupation 
      1     -28.9946      2.00000
      2     -28.9938      2.00000
      3     -28.9855      2.00000
      4     -16.5812      2.00000
      5     -16.5385      2.00000
      6     -16.5365      2.00000
      7     -12.5367      2.00000
      8     -12.4483      2.00000
      9     -12.4242      2.00000
     10      -0.8222      2.00000
     11      -0.6286      2.00000
     12      -0.5403      2.00000
     13      -0.4564      2.00000
     14      -0.2290      2.00000
     15      -0.0895      2.00000
     16       3.3327      2.07065
     17       3.3615      2.06625
     18       3.4616      1.84887
     19       7.9070     -0.00000
     20       8.0626     -0.00000
     21       8.0871     -0.00000
     22       9.5367      0.00000


--------------------------------------------------------------------------------------------------------


 soft charge-density along one line, spin component           1
         0         1         2         3         4         5         6         7         8         9
 total charge-density along one line
 
 pseudopotential strength for first ion, spin component:           1
-30.135  -0.006  -0.006   7.040   0.003   0.003   0.002   0.002
 -0.006 -30.135  -0.006   0.003   7.040   0.003  -0.000   0.002
 -0.006  -0.006 -30.135   0.003   0.003   7.040   0.002  -0.000
  7.040   0.003   0.003   3.786  -0.001  -0.001   0.003   0.003
  0.003   7.040   0.003  -0.001   3.786  -0.001   0.000   0.003
  0.003   0.003   7.040  -0.001  -0.001   3.786   0.003   0.000
  0.002  -0.000   0.002   0.003   0.000   0.003  -3.607  -0.003
  0.002   0.002  -0.000   0.003   0.003   0.000  -0.003  -3.607
  0.007  -0.015   0.007  -0.005   0.009  -0.005   0.003  -0.001
 -0.000   0.002   0.002   0.000   0.003   0.003  -0.003  -0.003
  0.013  -0.000  -0.013  -0.008   0.000   0.008   0.000   0.002
  0.002  -0.000   0.002   0.003   0.000   0.003  -3.776  -0.004
  0.002   0.002  -0.000   0.003   0.003   0.000  -0.004  -3.776
  0.009  -0.018   0.009  -0.005   0.011  -0.005   0.003  -0.002
 -0.000   0.002   0.002   0.000   0.003   0.003  -0.004  -0.004
  0.015  -0.000  -0.015  -0.009   0.000   0.009   0.000   0.003
  0.005   0.005   0.005  -0.002  -0.002  -0.002   0.001   0.001
  0.015   0.015   0.015  -0.005  -0.005  -0.005   0.003   0.003
 total augmentation occupancy for first ion, spin component:           1
  1.977  -0.000  -0.000  -0.063  -0.000  -0.000  -0.011  -0.011  -0.033   0.001  -0.057   0.010   0.010   0.028  -0.001   0.049
 -0.000   1.977  -0.000  -0.000  -0.063  -0.000   0.001  -0.011   0.066  -0.011   0.000  -0.001   0.010  -0.057   0.010   0.000
 -0.000  -0.000   1.977  -0.000  -0.000  -0.063  -0.011   0.001  -0.033  -0.011   0.057   0.010  -0.001   0.028   0.010  -0.049
 -0.063  -0.000  -0.000   0.340  -0.006  -0.006  -0.074  -0.074  -0.247   0.006  -0.428   0.052   0.052   0.173  -0.004   0.299
 -0.000  -0.063  -0.000  -0.006   0.340  -0.006   0.006  -0.074   0.495  -0.074   0.000  -0.004   0.052  -0.346   0.052   0.000
 -0.000  -0.000  -0.063  -0.006  -0.006   0.340  -0.074   0.006  -0.247  -0.074   0.428   0.052  -0.004   0.173   0.052  -0.299
 -0.011   0.001  -0.011  -0.074   0.006  -0.074   4.100  -0.008   0.346  -0.008   0.000  -2.579   0.003  -0.251   0.003   0.000
 -0.011  -0.011   0.001  -0.074  -0.074   0.006  -0.008   4.100  -0.173  -0.008   0.300   0.003  -2.579   0.126   0.003  -0.218
 -0.033   0.066  -0.033  -0.247   0.495  -0.247   0.346  -0.173  14.011  -0.173   0.000  -0.252   0.126  -9.768   0.126   0.000
  0.001  -0.011  -0.011   0.006  -0.074  -0.074  -0.008  -0.008  -0.173   4.100  -0.300   0.003   0.003   0.126  -2.579   0.218
 -0.057   0.000   0.057  -0.428   0.000   0.428   0.000   0.300   0.000  -0.300  14.011   0.000  -0.218   0.000   0.218  -9.768
  0.010  -0.001   0.010   0.052  -0.004   0.052  -2.579   0.003  -0.252   0.003   0.000   1.630   0.001   0.184   0.001   0.000
  0.010   0.010  -0.001   0.052   0.052  -0.004   0.003  -2.579   0.126   0.003  -0.218   0.001   1.630  -0.092   0.001   0.159
  0.028  -0.057   0.028   0.173  -0.346   0.173  -0.251   0.126  -9.768   0.126   0.000   0.184  -0.092   6.879  -0.092  -0.000
 -0.001   0.010   0.010  -0.004   0.052   0.052   0.003   0.003   0.126  -2.579   0.218   0.001   0.001  -0.092   1.630  -0.159
  0.049   0.000  -0.049   0.299   0.000  -0.299   0.000  -0.218  -0.000   0.218  -9.768   0.000   0.159  -0.000  -0.159   6.879
  0.004   0.004   0.004   0.086   0.086   0.086  -0.135  -0.135  -0.000  -0.135   0.000   0.093   0.093   0.000   0.093  -0.000
 -0.001  -0.001  -0.001  -0.001  -0.001  -0.001   0.005   0.005  -0.000   0.005   0.000  -0.004  -0.004   0.000  -0.004   0.000


------------------------ aborting loop because EDIFF is reached ----------------------------------------


    CHARGE:  cpu time    0.00: real time    0.00
    FORLOC:  cpu time    0.00: real time    0.00
    FORNL :  cpu time    0.02: real time    0.02
    STRESS:  cpu time    0.19: real time    0.19
    FORCOR:  cpu time    0.00: real time    0.00
    FORHAR:  cpu time    0.00: real time    0.00
    MIXING:  cpu time    0.00: real time    0.00
    OFIELD:  cpu time    0.00: real time    0.00

  FORCE on cell =-STRESS in cart. coord.  units (eV):
  Direction    XX          YY          ZZ          XY          YZ          ZX
  --------------------------------------------------------------------------------------
  Alpha Z   166.69950   166.69950   166.69950
  Ewald    -755.79149  -755.79149  -755.79149    -4.55339    -4.55339    -4.55339
  Hartree   231.27267   231.27267   231.27267    -2.20883    -2.20883    -2.20883
  E(xc)    -170.41497  -170.41497  -170.41497    -0.00881    -0.00881    -0.00881
  Local     -38.87271   -38.87271   -38.87271     6.74597     6.74597     6.74597
  n-local   -90.03156   -88.73587   -85.68575     0.02813    -0.18105     0.02649
  augment   132.77818   132.77818   132.77818    -0.02844    -0.02844    -0.02844
  Kinetic   515.43556   521.95530   528.46635     1.14215    -1.30005     1.26116
  Fock        0.00000     0.00000     0.00000     0.00000     0.00000     0.00000
  -------------------------------------------------------------------------------------
  Total      -0.52748    -0.52748    -0.52748     0.27212     0.27212     0.27212
  in kB     -14.44392   -14.44392   -14.44392     7.45138     7.45138     7.45138
  external pressure =      -14.44 kB  Pullay stress =        0.00 kB


 VOLUME and BASIS-vectors are now :
 -----------------------------------------------------------------------------
  energy-cutoff  :      400.00
  volume of cell :       58.51
      direct lattice vectors                 reciprocal lattice vectors
     3.882200000  0.000000000  0.000000000     0.257585905  0.000000000  0.000000000
     0.000000000  3.882200000  0.000000000     0.000000000  0.257585905  0.000000000
     0.000000000  0.000000000  3.882200000     0.000000000  0.000000000  0.257585905

  length of vectors
     3.882200000  3.882200000  3.882200000     0.257585905  0.257585905  0.257585905


 FORCES acting on ions
    electron-ion (+dipol)            ewald-force                    non-local-force                 convergence-correction
 -----------------------------------------------------------------------------------------------
   0.697E+01 0.697E+01 0.697E+01   -.701E+01 -.701E+01 -.701E+01   0.683E-02 0.683E-02 0.683E-02   -.237E-01 -.237E-01 -.237E-01
   0.358E+02 0.358E+02 0.358E+02   -.352E+02 -.352E+02 -.352E+02   -.577E+00 -.577E+00 -.577E+00   -.127E-01 -.127E-01 -.127E-01
   -.310E+02 -.323E+01 -.323E+01   0.353E+02 0.346E+01 0.346E+01   -.387E+01 -.420E+00 -.420E+00   -.565E-01 0.235E-01 0.235E-01
   -.323E+01 -.310E+02 -.323E+01   0.346E+01 0.353E+02 0.346E+01   -.420E+00 -.387E+01 -.420E+00   0.235E-01 -.565E-01 0.235E-01
   -.323E+01 -.323E+01 -.310E+02   0.346E+01 0.346E+01 0.353E+02   -.420E+00 -.420E+00 -.387E+01   0.235E-01 0.235E-01 -.565E-01
 -----------------------------------------------------------------------------------------------
   0.532E+01 0.532E+01 0.532E+01   0.142E-13 -.355E-14 0.000E+00   -.528E+01 -.528E+01 -.528E+01   -.459E-01 -.459E-01 -.459E-01
 
 
 POSITION                                       TOTAL-FORCE (eV/Angst)
 -----------------------------------------------------------------------------------
      0.04870      0.04870      0.04870        -0.059703     -0.059703     -0.059703
      2.07510      2.07510      2.07510        -0.033931     -0.033931     -0.033931
      1.89778     -0.05029     -0.05029         0.436445     -0.171405     -0.171405
     -0.05029      1.89778     -0.05029        -0.171405      0.436445     -0.171405
     -0.05029     -0.05029      1.89778        -0.171405     -0.171405      0.436445
 -----------------------------------------------------------------------------------
    total drift:                               -0.003883     -0.003883     -0.003881


--------------------------------------------------------------------------------------------------------



  FREE ENERGIE OF THE ION-ELECTRON SYSTEM (eV)
  ---------------------------------------------------
  free  energy   TOTEN  =       -40.09021219 eV

  energy  without entropy=      -40.09708186  energy(sigma->0) =      -40.09250208
 
 d Force =-0.5869810E-02[-0.362E-01, 0.244E-01]  d Energy =-0.3766910E-02-0.210E-02
 d Force =-0.4303899E+00[-0.196E+01, 0.110E+01]  d Ewald  =-0.4326358E+00 0.225E-02


--------------------------------------------------------------------------------------------------------


    POTLOK:  cpu time    0.00: real time    0.00


--------------------------------------------------------------------------------------------------------


 stress matrix after NEB project (eV)
     -0.52748      0.27212      0.27212
      0.27212     -0.52748      0.27212
      0.27212      0.27212     -0.52748
  FORCES: max atom, RMS     0.499244    0.390354
  FORCE total and by dimension    0.872857    0.436445
  Stress total and by dimension    1.130932    0.527483


--------------------------------------------------------------------------------------------------------


  
 reached required accuracy - stopping structural energy minimisation
 writing wavefunctions
     LOOP+:  cpu time    1.21: real time    1.21
    4ORBIT:  cpu time    0.00: real time    0.00

 total amount of memory used by VASP on root node    40041. kBytes
========================================================================

   base      :      30000. kBytes
   nonl-proj :       8934. kBytes
   fftplans  :        145. kBytes
   grid      :        538. kBytes
   one-center:         77. kBytes
   wavefun   :        347. kBytes
 
  
  
 General timing and accounting informations for this job:
 ========================================================
  
                  Total CPU time used (sec):       13.186
                            User time (sec):       12.978
                          System time (sec):        0.208
                         Elapsed time (sec):       13.188
  
                   Maximum memory used (kb):       63864.
                   Average memory used (kb):           0.
  
                          Minor page faults:        18915
                          Major page faults:            0
                 Voluntary context switches:          132
