 vasp.5.3.5 31Mar14 (build Dec 17 2015 22:09:37) complex                        
  
 executed on             LinuxIFC date 2017.03.19  05:27:32
 running on   22 total cores
 distrk:  each k-point on   22 cores,    1 groups
 distr:  one band on NCORES_PER_BAND=   1 cores,   22 groups


--------------------------------------------------------------------------------------------------------


 INCAR:
 POTCAR:    PAW_PBE Ti_pv 07Sep2000               
 POTCAR:    PAW_PBE Ca_pv 06Sep2000               
 POTCAR:    PAW_PBE O 08Apr2002                   

 ----------------------------------------------------------------------------- 
|                                                                             |
|           W    W    AA    RRRRR   N    N  II  N    N   GGGG   !!!           |
|           W    W   A  A   R    R  NN   N  II  NN   N  G    G  !!!           |
|           W    W  A    A  R    R  N N  N  II  N N  N  G       !!!           |
|           W WW W  AAAAAA  RRRRR   N  N N  II  N  N N  G  GGG   !            |
|           WW  WW  A    A  R   R   N   NN  II  N   NN  G    G                |
|           W    W  A    A  R    R  N    N  II  N    N   GGGG   !!!           |
|                                                                             |
|      For optimal performance we recommend to set                            |
|        NCORE= 4 - approx SQRT( number of cores)                             |
|      NCORE specifies how many cores store one orbital (NPAR=cpu/NCORE).     |
|      This setting can  greatly improve the performance of VASP for DFT.     |
|      The default, NPAR=number of cores might be grossly inefficient         |
|      on modern multi-core architectures or massively parallel machines.     |
|      Do your own testing !!!!                                               |
|      Unfortunately you need to use the default for GW and RPA calculations. |
|      (for HF NCORE is supported but not extensively tested yet)             |
|                                                                             |
 ----------------------------------------------------------------------------- 

 POTCAR:    PAW_PBE Ti_pv 07Sep2000               
   VRHFIN =Ti: d3 s1                                                            
   LEXCH  = PE                                                                  
   EATOM  =  1042.5995 eV,   76.6289 Ry                                         
                                                                                
   TITEL  = PAW_PBE Ti_pv 07Sep2000                                             
   LULTRA =        F    use ultrasoft PP ?                                      
   IUNSCR =        1    unscreen: 0-lin 1-nonlin 2-no                           
   RPACOR =    2.200    partial core radius                                     
   POMASS =   47.880; ZVAL   =   10.000    mass and valenz                      
   RCORE  =    2.500    outmost cutoff radius                                   
   RWIGS  =    2.500; RWIGS  =    1.323    wigner-seitz radius (au A)           
   ENMAX  =  222.335; ENMIN  =  166.751 eV                                      
   RCLOC  =    1.701    cutoff for local pot                                    
   LCOR   =        T    correct aug charges                                     
   LPAW   =        T    paw PP                                                  
   EAUG   =  482.848                                                            
   DEXC   =    0.000                                                            
   RMAX   =    2.564    core radius for proj-oper                               
   RAUG   =    1.300    factor for augmentation sphere                          
   RDEP   =    2.538    radius for radial grids                                 
   RDEPT  =    1.952    core radius for aug-charge                              
                                                                                
   Atomic configuration                                                         
    8 entries                                                                   
     n  l   j            E        occ.                                          
     1  0  0.50     -4865.3608   2.0000                                         
     2  0  0.50      -533.1368   2.0000                                         
     2  1  1.50      -440.5031   6.0000                                         
     3  0  0.50       -59.3186   2.0000                                         
     3  1  1.50       -35.7012   6.0000                                         
     3  2  2.50        -1.9157   3.0000                                         
     4  0  0.50        -3.7291   1.0000                                         
     4  3  2.50        -1.3606   0.0000                                         
   Description                                                                  
     l       E           TYP  RCUT    TYP  RCUT                                 
     1    -35.7012140     23  2.300                                             
     1     -1.3605826     23  2.300                                             
     2     -1.9156996     23  2.500                                             
     2     -0.4063033     23  2.500                                             
     0     -3.7290856     23  2.500                                             
     0     20.4087390     23  2.500                                             
  local pseudopotential read in
  partial core-charges read in
  partial kinetic energy density read in
  atomic valenz-charges read in
  non local Contribution for L=           1  read in
    real space projection operators read in
  non local Contribution for L=           1  read in
    real space projection operators read in
  non local Contribution for L=           2  read in
    real space projection operators read in
  non local Contribution for L=           2  read in
    real space projection operators read in
  non local Contribution for L=           0  read in
    real space projection operators read in
  non local Contribution for L=           0  read in
    real space projection operators read in
    PAW grid and wavefunctions read in
 
   number of l-projection  operators is LMAX  =           6
   number of lm-projection operators is LMMAX =          18
 
 POTCAR:    PAW_PBE Ca_pv 06Sep2000               
   VRHFIN =Ca: p6s2d0.01                                                        
   LEXCH  = PE                                                                  
   EATOM  =   612.6676 eV,   45.0298 Ry                                         
                                                                                
   TITEL  = PAW_PBE Ca_pv 06Sep2000                                             
   LULTRA =        F    use ultrasoft PP ?                                      
   IUNSCR =        1    unscreen: 0-lin 1-nonlin 2-no                           
   RPACOR =    2.300    partial core radius                                     
   POMASS =   40.078; ZVAL   =    8.000    mass and valenz                      
   RCORE  =    3.000    outmost cutoff radius                                   
   RWIGS  =    3.300; RWIGS  =    1.746    wigner-seitz radius (au A)           
   ENMAX  =  119.559; ENMIN  =   89.670 eV                                      
   RCLOC  =    1.709    cutoff for local pot                                    
   LCOR   =        T    correct aug charges                                     
   LPAW   =        T    paw PP                                                  
   EAUG   =  325.799                                                            
   DEXC   =    0.000                                                            
   RMAX   =    3.072    core radius for proj-oper                               
   RAUG   =    1.300    factor for augmentation sphere                          
   RDEP   =    3.090    radius for radial grids                                 
   RDEPT  =    2.377    core radius for aug-charge                              
                                                                                
   Atomic configuration                                                         
    7 entries                                                                   
     n  l   j            E        occ.                                          
     1  0  0.50     -3949.1705   2.0000                                         
     2  0  0.50      -414.3434   2.0000                                         
     2  1  1.50      -334.7047   6.0000                                         
     3  0  0.50       -47.0896   2.0000                                         
     3  1  1.50       -28.0061   6.0000                                         
     4  0  0.50        -3.7663   2.0000                                         
     3  2  1.50        -4.0817   0.0000                                         
   Description                                                                  
     l       E           TYP  RCUT    TYP  RCUT                                 
     1    -28.0060855     23  3.000                                             
     1      1.3605826     23  3.000                                             
     0     -3.7663320     23  3.000                                             
     0      4.1207953     23  3.000                                             
     2     -4.0817478     23  3.000                                             
     2     -0.8716232     23  3.000                                             
  local pseudopotential read in
  partial core-charges read in
  partial kinetic energy density read in
  atomic valenz-charges read in
  non local Contribution for L=           1  read in
    real space projection operators read in
  non local Contribution for L=           1  read in
    real space projection operators read in
  non local Contribution for L=           0  read in
    real space projection operators read in
  non local Contribution for L=           0  read in
    real space projection operators read in
  non local Contribution for L=           2  read in
    real space projection operators read in
  non local Contribution for L=           2  read in
    real space projection operators read in
    PAW grid and wavefunctions read in
 
   number of l-projection  operators is LMAX  =           6
   number of lm-projection operators is LMMAX =          18
 
 POTCAR:    PAW_PBE O 08Apr2002                   
   VRHFIN =O: s2p4                                                              
   LEXCH  = PE                                                                  
   EATOM  =   432.3788 eV,   31.7789 Ry                                         
                                                                                
   TITEL  = PAW_PBE O 08Apr2002                                                 
   LULTRA =        F    use ultrasoft PP ?                                      
   IUNSCR =        1    unscreen: 0-lin 1-nonlin 2-no                           
   RPACOR =    1.200    partial core radius                                     
   POMASS =   16.000; ZVAL   =    6.000    mass and valenz                      
   RCORE  =    1.520    outmost cutoff radius                                   
   RWIGS  =    1.550; RWIGS  =    0.820    wigner-seitz radius (au A)           
   ENMAX  =  400.000; ENMIN  =  300.000 eV                                      
   ICORE  =        2    local potential                                         
   LCOR   =        T    correct aug charges                                     
   LPAW   =        T    paw PP                                                  
   EAUG   =  605.392                                                            
   DEXC   =    0.000                                                            
   RMAX   =    1.553    core radius for proj-oper                               
   RAUG   =    1.300    factor for augmentation sphere                          
   RDEP   =    1.550    radius for radial grids                                 
   RDEPT  =    1.329    core radius for aug-charge                              
                                                                                
   Atomic configuration                                                         
    4 entries                                                                   
     n  l   j            E        occ.                                          
     1  0  0.50      -514.6923   2.0000                                         
     2  0  0.50       -23.9615   2.0000                                         
     2  1  0.50        -9.0305   4.0000                                         
     3  2  1.50        -9.5241   0.0000                                         
   Description                                                                  
     l       E           TYP  RCUT    TYP  RCUT                                 
     0    -23.9615318     23  1.200                                             
     0     -9.5240782     23  1.200                                             
     1     -9.0304911     23  1.520                                             
     1      8.1634956     23  1.520                                             
     2     -9.5240782      7  1.500                                             
  local pseudopotential read in
  partial core-charges read in
  partial kinetic energy density read in
  kinetic energy density of atom read in
  atomic valenz-charges read in
  non local Contribution for L=           0  read in
    real space projection operators read in
  non local Contribution for L=           0  read in
    real space projection operators read in
  non local Contribution for L=           1  read in
    real space projection operators read in
  non local Contribution for L=           1  read in
    real space projection operators read in
    PAW grid and wavefunctions read in
 
   number of l-projection  operators is LMAX  =           4
   number of lm-projection operators is LMMAX =           8
 
  PAW_PBE Ti_pv 07Sep2000               :
 energy of atom  1       EATOM=-1042.5995
 kinetic energy error for atom=    0.0037 (will be added to EATOM!!)
  PAW_PBE Ca_pv 06Sep2000               :
 energy of atom  2       EATOM= -612.6676
 kinetic energy error for atom=    0.0002 (will be added to EATOM!!)
  PAW_PBE O 08Apr2002                   :
 energy of atom  3       EATOM= -432.3788
 kinetic energy error for atom=    0.1156 (will be added to EATOM!!)
 
 
 POSCAR: CaTiO3                                  
  positions in direct lattice
  velocities in cartesian coordinates
  No initial velocities read in
 exchange correlation table for  LEXCH =        8
   RHO(1)=    0.500       N(1)  =     2000
   RHO(2)=  100.500       N(2)  =     4000

 VTST: version 3.1, (03/28/14)

 CHAIN: initializing optimizer
 
 OPT: Using VASP Conjugate-Gradient optimizer
 CHAIN: Read ICHAIN            0
 
 POSCAR: CaTiO3                                  
  positions in direct lattice
  velocities in cartesian coordinates
  No initial velocities read in
 


--------------------------------------------------------------------------------------------------------


 ion  position               nearest neighbor table
   1  0.010  0.020  0.030-   5 1.83   4 1.87   3 1.91   3 1.98   4 2.02   5 2.06   2 3.23   2 3.27
                             2 3.32   2 3.37   2 3.37   2 3.41   2 3.45   2 3.50
   2  0.500  0.500  0.500-   3 2.75   4 2.75   5 2.75   3 2.75   4 2.75   3 2.75   5 2.75   3 2.75
                             4 2.75   5 2.75   4 2.75   5 2.75   1 3.23   1 3.27   1 3.32   1 3.37
   3  0.500  0.000  0.000-   1 1.91   1 1.98   2 2.75   2 2.75   2 2.75   2 2.75
   4  0.000  0.500  0.000-   1 1.87   1 2.02   2 2.75   2 2.75   2 2.75   2 2.75
   5  0.000  0.000  0.500-   1 1.83   1 2.06   2 2.75   2 2.75   2 2.75   2 2.75
 
  LATTYP: Found a simple cubic cell.
 ALAT       =     3.8822000000
  
  Lattice vectors:
  
 A1 = (   3.8822000000,   0.0000000000,   0.0000000000)
 A2 = (   0.0000000000,   3.8822000000,   0.0000000000)
 A3 = (   0.0000000000,   0.0000000000,   3.8822000000)


Analysis of symmetry for initial positions (statically):
=====================================================================
 Subroutine PRICEL returns:
 Original cell was already a primitive cell.
 

 Routine SETGRP: Setting up the symmetry group for a 
 simple cubic supercell.


 Subroutine GETGRP returns: Found  1 space group operations
 (whereof  1 operations were pure point group operations)
 out of a pool of 48 trial point group operations.


The static configuration has the point symmetry C_1 .


Analysis of symmetry for dynamics (positions and initial velocities):
=====================================================================
 Subroutine PRICEL returns:
 Original cell was already a primitive cell.
 

 Routine SETGRP: Setting up the symmetry group for a 
 simple cubic supercell.


 Subroutine GETGRP returns: Found  1 space group operations
 (whereof  1 operations were pure point group operations)
 out of a pool of 48 trial point group operations.


The dynamic configuration has the point symmetry C_1 .
 
 
 KPOINTS: k-points                                

Automatic generation of k-mesh.
Space group operators:
 irot       det(A)        alpha          n_x          n_y          n_z        tau_x        tau_y        tau_z
    1     1.000000     0.000000     1.000000     0.000000     0.000000     0.000000     0.000000     0.000000
 
 Subroutine IBZKPT returns following result:
 ===========================================
 
 Found     63 irreducible k-points:
 
 Following reciprocal coordinates:
            Coordinates               Weight
  0.000000  0.000000  0.000000      1.000000
  0.200000  0.000000  0.000000      2.000000
  0.400000  0.000000  0.000000      2.000000
  0.000000  0.200000  0.000000      2.000000
  0.200000  0.200000  0.000000      2.000000
  0.400000  0.200000  0.000000      2.000000
 -0.400000  0.200000  0.000000      2.000000
 -0.200000  0.200000  0.000000      2.000000
  0.000000  0.400000  0.000000      2.000000
  0.200000  0.400000  0.000000      2.000000
  0.400000  0.400000  0.000000      2.000000
 -0.400000  0.400000  0.000000      2.000000
 -0.200000  0.400000  0.000000      2.000000
  0.000000  0.000000  0.200000      2.000000
  0.200000  0.000000  0.200000      2.000000
  0.400000  0.000000  0.200000      2.000000
 -0.400000  0.000000  0.200000      2.000000
 -0.200000  0.000000  0.200000      2.000000
  0.000000  0.200000  0.200000      2.000000
  0.200000  0.200000  0.200000      2.000000
  0.400000  0.200000  0.200000      2.000000
 -0.400000  0.200000  0.200000      2.000000
 -0.200000  0.200000  0.200000      2.000000
  0.000000  0.400000  0.200000      2.000000
  0.200000  0.400000  0.200000      2.000000
  0.400000  0.400000  0.200000      2.000000
 -0.400000  0.400000  0.200000      2.000000
 -0.200000  0.400000  0.200000      2.000000
  0.000000 -0.400000  0.200000      2.000000
  0.200000 -0.400000  0.200000      2.000000
  0.400000 -0.400000  0.200000      2.000000
 -0.400000 -0.400000  0.200000      2.000000
 -0.200000 -0.400000  0.200000      2.000000
  0.000000 -0.200000  0.200000      2.000000
  0.200000 -0.200000  0.200000      2.000000
  0.400000 -0.200000  0.200000      2.000000
 -0.400000 -0.200000  0.200000      2.000000
 -0.200000 -0.200000  0.200000      2.000000
  0.000000  0.000000  0.400000      2.000000
  0.200000  0.000000  0.400000      2.000000
  0.400000  0.000000  0.400000      2.000000
 -0.400000  0.000000  0.400000      2.000000
 -0.200000  0.000000  0.400000      2.000000
  0.000000  0.200000  0.400000      2.000000
  0.200000  0.200000  0.400000      2.000000
  0.400000  0.200000  0.400000      2.000000
 -0.400000  0.200000  0.400000      2.000000
 -0.200000  0.200000  0.400000      2.000000
  0.000000  0.400000  0.400000      2.000000
  0.200000  0.400000  0.400000      2.000000
  0.400000  0.400000  0.400000      2.000000
 -0.400000  0.400000  0.400000      2.000000
 -0.200000  0.400000  0.400000      2.000000
  0.000000 -0.400000  0.400000      2.000000
  0.200000 -0.400000  0.400000      2.000000
  0.400000 -0.400000  0.400000      2.000000
 -0.400000 -0.400000  0.400000      2.000000
 -0.200000 -0.400000  0.400000      2.000000
  0.000000 -0.200000  0.400000      2.000000
  0.200000 -0.200000  0.400000      2.000000
  0.400000 -0.200000  0.400000      2.000000
 -0.400000 -0.200000  0.400000      2.000000
 -0.200000 -0.200000  0.400000      2.000000
 
 Following cartesian coordinates:
            Coordinates               Weight
  0.000000  0.000000  0.000000      1.000000
  0.200000  0.000000  0.000000      2.000000
  0.400000  0.000000  0.000000      2.000000
  0.000000  0.200000  0.000000      2.000000
  0.200000  0.200000  0.000000      2.000000
  0.400000  0.200000  0.000000      2.000000
 -0.400000  0.200000  0.000000      2.000000
 -0.200000  0.200000  0.000000      2.000000
  0.000000  0.400000  0.000000      2.000000
  0.200000  0.400000  0.000000      2.000000
  0.400000  0.400000  0.000000      2.000000
 -0.400000  0.400000  0.000000      2.000000
 -0.200000  0.400000  0.000000      2.000000
  0.000000  0.000000  0.200000      2.000000
  0.200000  0.000000  0.200000      2.000000
  0.400000  0.000000  0.200000      2.000000
 -0.400000  0.000000  0.200000      2.000000
 -0.200000  0.000000  0.200000      2.000000
  0.000000  0.200000  0.200000      2.000000
  0.200000  0.200000  0.200000      2.000000
  0.400000  0.200000  0.200000      2.000000
 -0.400000  0.200000  0.200000      2.000000
 -0.200000  0.200000  0.200000      2.000000
  0.000000  0.400000  0.200000      2.000000
  0.200000  0.400000  0.200000      2.000000
  0.400000  0.400000  0.200000      2.000000
 -0.400000  0.400000  0.200000      2.000000
 -0.200000  0.400000  0.200000      2.000000
  0.000000 -0.400000  0.200000      2.000000
  0.200000 -0.400000  0.200000      2.000000
  0.400000 -0.400000  0.200000      2.000000
 -0.400000 -0.400000  0.200000      2.000000
 -0.200000 -0.400000  0.200000      2.000000
  0.000000 -0.200000  0.200000      2.000000
  0.200000 -0.200000  0.200000      2.000000
  0.400000 -0.200000  0.200000      2.000000
 -0.400000 -0.200000  0.200000      2.000000
 -0.200000 -0.200000  0.200000      2.000000
  0.000000  0.000000  0.400000      2.000000
  0.200000  0.000000  0.400000      2.000000
  0.400000  0.000000  0.400000      2.000000
 -0.400000  0.000000  0.400000      2.000000
 -0.200000  0.000000  0.400000      2.000000
  0.000000  0.200000  0.400000      2.000000
  0.200000  0.200000  0.400000      2.000000
  0.400000  0.200000  0.400000      2.000000
 -0.400000  0.200000  0.400000      2.000000
 -0.200000  0.200000  0.400000      2.000000
  0.000000  0.400000  0.400000      2.000000
  0.200000  0.400000  0.400000      2.000000
  0.400000  0.400000  0.400000      2.000000
 -0.400000  0.400000  0.400000      2.000000
 -0.200000  0.400000  0.400000      2.000000
  0.000000 -0.400000  0.400000      2.000000
  0.200000 -0.400000  0.400000      2.000000
  0.400000 -0.400000  0.400000      2.000000
 -0.400000 -0.400000  0.400000      2.000000
 -0.200000 -0.400000  0.400000      2.000000
  0.000000 -0.200000  0.400000      2.000000
  0.200000 -0.200000  0.400000      2.000000
  0.400000 -0.200000  0.400000      2.000000
 -0.400000 -0.200000  0.400000      2.000000
 -0.200000 -0.200000  0.400000      2.000000
 


--------------------------------------------------------------------------------------------------------




 Dimension of arrays:
   k-points           NKPTS =     63   k-points in BZ     NKDIM =     63   number of bands    NBANDS=     22
   number of dos      NEDOS =    301   number of ions     NIONS =      5
   non local maximal  LDIM  =      6   non local SUM 2l+1 LMDIM =     18
   total plane-waves  NPLWV =   8000
   max r-space proj   IRMAX =      1   max aug-charges    IRDMAX=   9776
   dimension x,y,z NGX =    20 NGY =   20 NGZ =   20
   dimension x,y,z NGXF=    40 NGYF=   40 NGZF=   40
   support grid    NGXF=    40 NGYF=   40 NGZF=   40
   ions per type =               1   1   3
 NGX,Y,Z   is equivalent  to a cutoff of   8.56,  8.56,  8.56 a.u.
 NGXF,Y,Z  is equivalent  to a cutoff of  17.13, 17.13, 17.13 a.u.


 I would recommend the setting:
   dimension x,y,z NGX =    19 NGY =   19 NGZ =   19
 SYSTEM =  unknown system                          
 POSCAR =  CaTiO3                                  

 Startparameter for this run:
   NWRITE =      2    write-flag & timer
   PREC   = normal    normal or accurate (medium, high low for compatibility)
   ISTART =      1    job   : 0-new  1-cont  2-samecut
   ICHARG =      0    charge: 1-file 2-atom 10-const
   ISPIN  =      1    spin polarized calculation?
   LNONCOLLINEAR =      F non collinear calculations
   LSORBIT =      F    spin-orbit coupling
   INIWAV =      1    electr: 0-lowe 1-rand  2-diag
   LASPH  =      F    aspherical Exc in radial PAW
   METAGGA=      F    non-selfconsistent MetaGGA calc.

 Electronic Relaxation 1
   ENCUT  =  400.0 eV  29.40 Ry    5.42 a.u.   6.33  6.33  6.33*2*pi/ulx,y,z
   ENINI  =  400.0     initial cutoff
   ENAUG  =  605.4 eV  augmentation charge cutoff
   NELM   =     60;   NELMIN=  2; NELMDL=  0     # of ELM steps 
   EDIFF  = 0.1E-03   stopping-criterion for ELM
   LREAL  =      F    real-space projection
   NLSPLINE    = F    spline interpolate recip. space projectors
   LCOMPAT=      F    compatible to vasp.4.4
   GGA_COMPAT  = T    GGA compatible to vasp.4.4-vasp.4.6
   LMAXPAW     = -100 max onsite density
   LMAXMIX     =    2 max onsite mixed and CHGCAR
   VOSKOWN=      0    Vosko Wilk Nusair interpolation
   ROPT   =    0.00000   0.00000   0.00000
 Ionic relaxation
   EDIFFG = 0.1E-02   stopping-criterion for IOM
   NSW    =   1024    number of steps for IOM
   NBLOCK =      1;   KBLOCK =   1024    inner block; outer block 
   IBRION =      2    ionic relax: 0-MD 1-quasi-New 2-CG
   NFREE  =      1    steps in history (QN), initial steepest desc. (CG)
   ISIF   =      2    stress and relaxation
   IWAVPR =     11    prediction:  0-non 1-charg 2-wave 3-comb
   ISYM   =      2    0-nonsym 1-usesym 2-fastsym
   LCORR  =      T    Harris-Foulkes like correction to forces

   POTIM  = 0.5000    time-step for ionic-motion
   TEIN   =    0.0    initial temperature
   TEBEG  =    0.0;   TEEND  =   0.0 temperature during run
   SMASS  =  -3.00    Nose mass-parameter (am)
   estimated Nose-frequenzy (Omega)   =  0.10E-29 period in steps =****** mass=  -0.344E-27a.u.
   SCALEE = 1.0000    scale energy and forces
   NPACO  =    256;   APACO  = 16.0  distance and # of slots for P.C.
   PSTRESS=    0.0 pullay stress

  Mass of Ions in am
   POMASS =  47.88 40.08 16.00
  Ionic Valenz
   ZVAL   =  10.00  8.00  6.00
  Atomic Wigner-Seitz radii
   RWIGS  =  -1.00 -1.00 -1.00
  virtual crystal weights 
   VCA    =   1.00  1.00  1.00
   NELECT =      36.0000    total number of electrons
   NUPDOWN=      -1.0000    fix difference up-down

 DOS related values:
   EMIN   =  10.00;   EMAX   =-10.00  energy-range for DOS
   EFERMI =   0.00
   ISMEAR =     1;   SIGMA  =   0.20  broadening in eV -4-tet -1-fermi 0-gaus

 Electronic relaxation 2 (details)
   IALGO  =     38    algorithm
   LDIAG  =      T    sub-space diagonalisation (order eigenvalues)
   LSUBROT=      F    optimize rotation matrix (better conditioning)
   TURBO    =      0    0=normal 1=particle mesh
   IRESTART =      0    0=no restart 2=restart with 2 vectors
   NREBOOT  =      0    no. of reboots
   NMIN     =      0    reboot dimension
   EREF     =   0.00    reference energy to select bands
   IMIX   =      4    mixing-type and parameters
     AMIX     =   0.40;   BMIX     =  1.00
     AMIX_MAG =   1.60;   BMIX_MAG =  1.00
     AMIN     =   0.10
     WC   =   100.;   INIMIX=   1;  MIXPRE=   1;  MAXMIX= -45

 Intra band minimization:
   WEIMIN = 0.0010     energy-eigenvalue tresh-hold
   EBREAK =  0.11E-05  absolut break condition
   DEPER  =   0.30     relativ break condition  

   TIME   =   0.40     timestep for ELM

  volume/ion in A,a.u.               =      11.70        78.97
  Fermi-wavevector in a.u.,A,eV,Ry     =   1.392401  2.631257 26.378723  1.938781
  Thomas-Fermi vector in A             =   2.516148
 
 Write flags
   LWAVE  =      T    write WAVECAR
   LCHARG =      T    write CHGCAR
   LVTOT  =      F    write LOCPOT, total local potential
   LVHAR  =      F    write LOCPOT, Hartree potential only
   LELF   =      F    write electronic localiz. function (ELF)
   LORBIT =      0    0 simple, 1 ext, 2 COOP (PROOUT)


 Dipole corrections
   LMONO  =      F    monopole corrections only (constant potential shift)
   LDIPOL =      F    correct potential (dipole corrections)
   IDIPOL =      0    1-x, 2-y, 3-z, 4-all directions 
   EPSILON=  1.0000000 bulk dielectric constant

 Exchange correlation treatment:
   GGA     =    --    GGA type
   LEXCH   =     8    internal setting for exchange type
   VOSKOWN=      0    Vosko Wilk Nusair interpolation
   LHFCALC =     F    Hartree Fock is set to
   LHFONE  =     F    Hartree Fock one center treatment
   AEXX    =    0.0000 exact exchange contribution

 Linear response parameters
   LEPSILON=     F    determine dielectric tensor
   LRPA    =     F    only Hartree local field effects (RPA)
   LNABLA  =     F    use nabla operator in PAW spheres
   LVEL    =     F    velocity operator in full k-point grid
   LINTERFAST=   F  fast interpolation
   KINTER  =     0    interpolate to denser k-point grid
   CSHIFT  =0.1000    complex shift for real part using Kramers Kronig
   OMEGAMAX=  -1.0    maximum frequency
   DEG_THRESHOLD= 0.2000000E-02 threshold for treating states as degnerate
   RTIME   =    0.100 relaxation time in fs

 Orbital magnetization related:
   ORBITALMAG=     F  switch on orbital magnetization
   LCHIMAG   =     F  perturbation theory with respect to B field
   DQ        =  0.001000  dq finite difference perturbation B field



--------------------------------------------------------------------------------------------------------


 conjugate gradient relaxation of ions
 charge density and potential will be updated during run
 non-spin polarized calculation
 Variant of blocked Davidson
 Davidson routine will perform the subspace rotation
 perform sub-space diagonalisation
    after iterative eigenvector-optimisation
 modified Broyden-mixing scheme, WC =      100.0
 initial mixing is a Kerker type mixing with AMIX =  0.4000 and BMIX =      1.0000
 Hartree-type preconditioning will be used
 using additional bands            4
 reciprocal scheme for non local part
 use partial core corrections
 calculate Harris-corrections to forces 
   (improved forces if not selfconsistent)
 use gradient corrections 
 use of overlap-Matrix (Vanderbilt PP)
 Methfessel and Paxton  Order N= 1 SIGMA  =   0.20


--------------------------------------------------------------------------------------------------------


  energy-cutoff  :      400.00
  volume of cell :       58.51
      direct lattice vectors                 reciprocal lattice vectors
     3.882200000  0.000000000  0.000000000     0.257585905  0.000000000  0.000000000
     0.000000000  3.882200000  0.000000000     0.000000000  0.257585905  0.000000000
     0.000000000  0.000000000  3.882200000     0.000000000  0.000000000  0.257585905

  length of vectors
     3.882200000  3.882200000  3.882200000     0.257585905  0.257585905  0.257585905


 
 old parameters found on file WAVECAR:
  energy-cutoff  :      400.00
  volume of cell :       58.51
      direct lattice vectors                 reciprocal lattice vectors
     3.882200000  0.000000000  0.000000000     0.257585905  0.000000000  0.000000000
     0.000000000  3.882200000  0.000000000     0.000000000  0.257585905  0.000000000
     0.000000000  0.000000000  3.882200000     0.000000000  0.000000000  0.257585905

  length of vectors

 
 k-points in units of 2pi/SCALE and weight: k-points                                
   0.00000000  0.00000000  0.00000000       0.008
   0.20000000  0.00000000  0.00000000       0.016
   0.40000000  0.00000000  0.00000000       0.016
   0.00000000  0.20000000  0.00000000       0.016
   0.20000000  0.20000000  0.00000000       0.016
   0.40000000  0.20000000  0.00000000       0.016
  -0.40000000  0.20000000  0.00000000       0.016
  -0.20000000  0.20000000  0.00000000       0.016
   0.00000000  0.40000000  0.00000000       0.016
   0.20000000  0.40000000  0.00000000       0.016
   0.40000000  0.40000000  0.00000000       0.016
  -0.40000000  0.40000000  0.00000000       0.016
  -0.20000000  0.40000000  0.00000000       0.016
   0.00000000  0.00000000  0.20000000       0.016
   0.20000000  0.00000000  0.20000000       0.016
   0.40000000  0.00000000  0.20000000       0.016
  -0.40000000  0.00000000  0.20000000       0.016
  -0.20000000  0.00000000  0.20000000       0.016
   0.00000000  0.20000000  0.20000000       0.016
   0.20000000  0.20000000  0.20000000       0.016
   0.40000000  0.20000000  0.20000000       0.016
  -0.40000000  0.20000000  0.20000000       0.016
  -0.20000000  0.20000000  0.20000000       0.016
   0.00000000  0.40000000  0.20000000       0.016
   0.20000000  0.40000000  0.20000000       0.016
   0.40000000  0.40000000  0.20000000       0.016
  -0.40000000  0.40000000  0.20000000       0.016
  -0.20000000  0.40000000  0.20000000       0.016
   0.00000000 -0.40000000  0.20000000       0.016
   0.20000000 -0.40000000  0.20000000       0.016
   0.40000000 -0.40000000  0.20000000       0.016
  -0.40000000 -0.40000000  0.20000000       0.016
  -0.20000000 -0.40000000  0.20000000       0.016
   0.00000000 -0.20000000  0.20000000       0.016
   0.20000000 -0.20000000  0.20000000       0.016
   0.40000000 -0.20000000  0.20000000       0.016
  -0.40000000 -0.20000000  0.20000000       0.016
  -0.20000000 -0.20000000  0.20000000       0.016
   0.00000000  0.00000000  0.40000000       0.016
   0.20000000  0.00000000  0.40000000       0.016
   0.40000000  0.00000000  0.40000000       0.016
  -0.40000000  0.00000000  0.40000000       0.016
  -0.20000000  0.00000000  0.40000000       0.016
   0.00000000  0.20000000  0.40000000       0.016
   0.20000000  0.20000000  0.40000000       0.016
   0.40000000  0.20000000  0.40000000       0.016
  -0.40000000  0.20000000  0.40000000       0.016
  -0.20000000  0.20000000  0.40000000       0.016
   0.00000000  0.40000000  0.40000000       0.016
   0.20000000  0.40000000  0.40000000       0.016
   0.40000000  0.40000000  0.40000000       0.016
  -0.40000000  0.40000000  0.40000000       0.016
  -0.20000000  0.40000000  0.40000000       0.016
   0.00000000 -0.40000000  0.40000000       0.016
   0.20000000 -0.40000000  0.40000000       0.016
   0.40000000 -0.40000000  0.40000000       0.016
  -0.40000000 -0.40000000  0.40000000       0.016
  -0.20000000 -0.40000000  0.40000000       0.016
   0.00000000 -0.20000000  0.40000000       0.016
   0.20000000 -0.20000000  0.40000000       0.016
   0.40000000 -0.20000000  0.40000000       0.016
  -0.40000000 -0.20000000  0.40000000       0.016
  -0.20000000 -0.20000000  0.40000000       0.016
 
 k-points in reciprocal lattice and weights: k-points                                
   0.00000000  0.00000000  0.00000000       0.008
   0.20000000  0.00000000  0.00000000       0.016
   0.40000000  0.00000000  0.00000000       0.016
   0.00000000  0.20000000  0.00000000       0.016
   0.20000000  0.20000000  0.00000000       0.016
   0.40000000  0.20000000  0.00000000       0.016
  -0.40000000  0.20000000  0.00000000       0.016
  -0.20000000  0.20000000  0.00000000       0.016
   0.00000000  0.40000000  0.00000000       0.016
   0.20000000  0.40000000  0.00000000       0.016
   0.40000000  0.40000000  0.00000000       0.016
  -0.40000000  0.40000000  0.00000000       0.016
  -0.20000000  0.40000000  0.00000000       0.016
   0.00000000  0.00000000  0.20000000       0.016
   0.20000000  0.00000000  0.20000000       0.016
   0.40000000  0.00000000  0.20000000       0.016
  -0.40000000  0.00000000  0.20000000       0.016
  -0.20000000  0.00000000  0.20000000       0.016
   0.00000000  0.20000000  0.20000000       0.016
   0.20000000  0.20000000  0.20000000       0.016
   0.40000000  0.20000000  0.20000000       0.016
  -0.40000000  0.20000000  0.20000000       0.016
  -0.20000000  0.20000000  0.20000000       0.016
   0.00000000  0.40000000  0.20000000       0.016
   0.20000000  0.40000000  0.20000000       0.016
   0.40000000  0.40000000  0.20000000       0.016
  -0.40000000  0.40000000  0.20000000       0.016
  -0.20000000  0.40000000  0.20000000       0.016
   0.00000000 -0.40000000  0.20000000       0.016
   0.20000000 -0.40000000  0.20000000       0.016
   0.40000000 -0.40000000  0.20000000       0.016
  -0.40000000 -0.40000000  0.20000000       0.016
  -0.20000000 -0.40000000  0.20000000       0.016
   0.00000000 -0.20000000  0.20000000       0.016
   0.20000000 -0.20000000  0.20000000       0.016
   0.40000000 -0.20000000  0.20000000       0.016
  -0.40000000 -0.20000000  0.20000000       0.016
  -0.20000000 -0.20000000  0.20000000       0.016
   0.00000000  0.00000000  0.40000000       0.016
   0.20000000  0.00000000  0.40000000       0.016
   0.40000000  0.00000000  0.40000000       0.016
  -0.40000000  0.00000000  0.40000000       0.016
  -0.20000000  0.00000000  0.40000000       0.016
   0.00000000  0.20000000  0.40000000       0.016
   0.20000000  0.20000000  0.40000000       0.016
   0.40000000  0.20000000  0.40000000       0.016
  -0.40000000  0.20000000  0.40000000       0.016
  -0.20000000  0.20000000  0.40000000       0.016
   0.00000000  0.40000000  0.40000000       0.016
   0.20000000  0.40000000  0.40000000       0.016
   0.40000000  0.40000000  0.40000000       0.016
  -0.40000000  0.40000000  0.40000000       0.016
  -0.20000000  0.40000000  0.40000000       0.016
   0.00000000 -0.40000000  0.40000000       0.016
   0.20000000 -0.40000000  0.40000000       0.016
   0.40000000 -0.40000000  0.40000000       0.016
  -0.40000000 -0.40000000  0.40000000       0.016
  -0.20000000 -0.40000000  0.40000000       0.016
   0.00000000 -0.20000000  0.40000000       0.016
   0.20000000 -0.20000000  0.40000000       0.016
   0.40000000 -0.20000000  0.40000000       0.016
  -0.40000000 -0.20000000  0.40000000       0.016
  -0.20000000 -0.20000000  0.40000000       0.016
 
 position of ions in fractional coordinates (direct lattice) 
   0.01000000  0.02000000  0.03000000
   0.50000000  0.50000000  0.50000000
   0.50000000  0.00000000  0.00000000
   0.00000000  0.50000000  0.00000000
   0.00000000  0.00000000  0.50000000
 
 position of ions in cartesian coordinates  (Angst):
   0.03882200  0.07764400  0.11646600
   1.94110000  1.94110000  1.94110000
   1.94110000  0.00000000  0.00000000
   0.00000000  1.94110000  0.00000000
   0.00000000  0.00000000  1.94110000
 


--------------------------------------------------------------------------------------------------------


 k-point  1 :   0.0000 0.0000 0.0000  plane waves:    1045
 k-point  2 :   0.2000 0.0000 0.0000  plane waves:    1069
 k-point  3 :   0.4000 0.0000 0.0000  plane waves:    1064
 k-point  4 :   0.0000 0.2000 0.0000  plane waves:    1069
 k-point  5 :   0.2000 0.2000 0.0000  plane waves:    1073
 k-point  6 :   0.4000 0.2000 0.0000  plane waves:    1072
 k-point  7 :  -0.4000 0.2000 0.0000  plane waves:    1072
 k-point  8 :  -0.2000 0.2000 0.0000  plane waves:    1073
 k-point  9 :   0.0000 0.4000 0.0000  plane waves:    1064
 k-point 10 :   0.2000 0.4000 0.0000  plane waves:    1072
 k-point 11 :   0.4000 0.4000 0.0000  plane waves:    1063
 k-point 12 :  -0.4000 0.4000 0.0000  plane waves:    1063
 k-point 13 :  -0.2000 0.4000 0.0000  plane waves:    1072
 k-point 14 :   0.0000 0.0000 0.2000  plane waves:    1069
 k-point 15 :   0.2000 0.0000 0.2000  plane waves:    1073
 k-point 16 :   0.4000 0.0000 0.2000  plane waves:    1072
 k-point 17 :  -0.4000 0.0000 0.2000  plane waves:    1072
 k-point 18 :  -0.2000 0.0000 0.2000  plane waves:    1073
 k-point 19 :   0.0000 0.2000 0.2000  plane waves:    1073
 k-point 20 :   0.2000 0.2000 0.2000  plane waves:    1066
 k-point 21 :   0.4000 0.2000 0.2000  plane waves:    1068
 k-point 22 :  -0.4000 0.2000 0.2000  plane waves:    1068
 k-point 23 :  -0.2000 0.2000 0.2000  plane waves:    1066
 k-point 24 :   0.0000 0.4000 0.2000  plane waves:    1072
 k-point 25 :   0.2000 0.4000 0.2000  plane waves:    1068
 k-point 26 :   0.4000 0.4000 0.2000  plane waves:    1054
 k-point 27 :  -0.4000 0.4000 0.2000  plane waves:    1054
 k-point 28 :  -0.2000 0.4000 0.2000  plane waves:    1068
 k-point 29 :   0.0000-0.4000 0.2000  plane waves:    1072
 k-point 30 :   0.2000-0.4000 0.2000  plane waves:    1068
 k-point 31 :   0.4000-0.4000 0.2000  plane waves:    1054
 k-point 32 :  -0.4000-0.4000 0.2000  plane waves:    1054
 k-point 33 :  -0.2000-0.4000 0.2000  plane waves:    1068
 k-point 34 :   0.0000-0.2000 0.2000  plane waves:    1073
 k-point 35 :   0.2000-0.2000 0.2000  plane waves:    1066
 k-point 36 :   0.4000-0.2000 0.2000  plane waves:    1068
 k-point 37 :  -0.4000-0.2000 0.2000  plane waves:    1068
 k-point 38 :  -0.2000-0.2000 0.2000  plane waves:    1066
 k-point 39 :   0.0000 0.0000 0.4000  plane waves:    1064
 k-point 40 :   0.2000 0.0000 0.4000  plane waves:    1072
 k-point 41 :   0.4000 0.0000 0.4000  plane waves:    1063
 k-point 42 :  -0.4000 0.0000 0.4000  plane waves:    1063
 k-point 43 :  -0.2000 0.0000 0.4000  plane waves:    1072
 k-point 44 :   0.0000 0.2000 0.4000  plane waves:    1072
 k-point 45 :   0.2000 0.2000 0.4000  plane waves:    1068
 k-point 46 :   0.4000 0.2000 0.4000  plane waves:    1054
 k-point 47 :  -0.4000 0.2000 0.4000  plane waves:    1054
 k-point 48 :  -0.2000 0.2000 0.4000  plane waves:    1068
 k-point 49 :   0.0000 0.4000 0.4000  plane waves:    1063
 k-point 50 :   0.2000 0.4000 0.4000  plane waves:    1054
 k-point 51 :   0.4000 0.4000 0.4000  plane waves:    1058
 k-point 52 :  -0.4000 0.4000 0.4000  plane waves:    1058
 k-point 53 :  -0.2000 0.4000 0.4000  plane waves:    1054
 k-point 54 :   0.0000-0.4000 0.4000  plane waves:    1063
 k-point 55 :   0.2000-0.4000 0.4000  plane waves:    1054
 k-point 56 :   0.4000-0.4000 0.4000  plane waves:    1058
 k-point 57 :  -0.4000-0.4000 0.4000  plane waves:    1058
 k-point 58 :  -0.2000-0.4000 0.4000  plane waves:    1054
 k-point 59 :   0.0000-0.2000 0.4000  plane waves:    1072
 k-point 60 :   0.2000-0.2000 0.4000  plane waves:    1068
 k-point 61 :   0.4000-0.2000 0.4000  plane waves:    1054
 k-point 62 :  -0.4000-0.2000 0.4000  plane waves:    1054
 k-point 63 :  -0.2000-0.2000 0.4000  plane waves:    1068

 maximum and minimum number of plane-waves per node :      1073     1045

 maximum number of plane-waves:      1073
 maximum index in each direction: 
   IXMAX=    6   IYMAX=    6   IZMAX=    6
   IXMIN=   -6   IYMIN=   -6   IZMIN=   -6

 WARNING: aliasing errors must be expected set NGX to  26 to avoid them
 WARNING: aliasing errors must be expected set NGY to  26 to avoid them
 WARNING: aliasing errors must be expected set NGZ to  26 to avoid them
 aliasing errors are usually negligible using standard VASP settings
 and one can safely disregard these warnings

 serial   3D FFT for wavefunctions
 parallel 3D FFT for charge:
    minimum data exchange during FFTs selected (reduces bandwidth)


 total amount of memory used by VASP on root node    61338. kBytes
========================================================================

   base      :      30000. kBytes
   nonl-proj :      29425. kBytes
   fftplans  :        145. kBytes
   grid      :        538. kBytes
   one-center:         77. kBytes
   wavefun   :       1153. kBytes
 
     INWAV:  cpu time    0.21: real time    0.21
 Broyden mixing: mesh for mixing (old mesh)
   NGX = 13   NGY = 13   NGZ = 13
  (NGX  = 40   NGY  = 40   NGZ  = 40)
  gives a total of   2197 points

 charge density for first step will be calculated from the start-wavefunctions


--------------------------------------------------------------------------------------------------------


 Maximum index for augmentation-charges          517 (set IRDMAX)


--------------------------------------------------------------------------------------------------------


 initial charge from wavefunction
 First call to EWALD:  gamma=   0.457
 Maximum number of real-space cells 3x 3x 3
 Maximum number of reciprocal cells 3x 3x 3

 FEWALD executed in parallel
    FEWALD:  cpu time    0.00: real time    0.00


----------------------------------------- Iteration    1(   1)  ---------------------------------------


    POTLOK:  cpu time    0.00: real time    0.00
    SETDIJ:  cpu time    0.00: real time    0.00
     EDDAV:  cpu time    0.38: real time    0.38
       DOS:  cpu time    0.00: real time    0.00
    CHARGE:  cpu time    0.02: real time    0.02
    MIXING:  cpu time    0.00: real time    0.00
    --------------------------------------------
      LOOP:  cpu time    0.41: real time    0.41

 eigenvalue-minimisations  :  2772
 total energy-change (2. order) :-0.5185489E+02  (-0.3174739E+02)
 number of electron      36.0000067 magnetization 
 augmentation part       11.3159553 magnetization 

 Broyden mixing:
  rms(total) = 0.20095E+01    rms(broyden)= 0.20093E+01
  rms(prec ) = 0.43444E+01
  weight for this iteration     100.00

 Free energy of the ion-electron system (eV)
  ---------------------------------------------------
  alpha Z        PSCENC =       166.69949767
  Ewald energy   TEWEN  =     -2274.95761532
  -Hartree energ DENC   =      -680.97422272
  -exchange      EXHF   =         0.00000000
  -V(xc)+E(xc)   XCENC  =       137.61764150
  PAW double counting   =      5011.86371691    -5018.12544465
  entropy T*S    EENTRO =         0.00396046
  eigenvalues    EBANDS =      -346.03517249
  atomic energy  EATOM  =      2952.05274943
  ---------------------------------------------------
  free energy    TOTEN  =       -51.85488919 eV

  energy without entropy =      -51.85884965  energy(sigma->0) =      -51.85620934


--------------------------------------------------------------------------------------------------------




----------------------------------------- Iteration    1(   2)  ---------------------------------------


    POTLOK:  cpu time    0.00: real time    0.00
    SETDIJ:  cpu time    0.00: real time    0.00
     EDDAV:  cpu time    0.40: real time    0.40
       DOS:  cpu time    0.00: real time    0.00
    CHARGE:  cpu time    0.02: real time    0.02
    MIXING:  cpu time    0.00: real time    0.00
    --------------------------------------------
      LOOP:  cpu time    0.42: real time    0.42

 eigenvalue-minimisations  :  2904
 total energy-change (2. order) : 0.1064557E+02  (-0.3998503E+01)
 number of electron      36.0000072 magnetization 
 augmentation part       11.0812227 magnetization 

 Broyden mixing:
  rms(total) = 0.68936E+00    rms(broyden)= 0.68927E+00
  rms(prec ) = 0.15077E+01
  weight for this iteration     100.00

 eigenvalues of (default mixing * dielectric matrix)
  average eigenvalue GAMMA=   1.1935
  1.1935

 Free energy of the ion-electron system (eV)
  ---------------------------------------------------
  alpha Z        PSCENC =       166.69949767
  Ewald energy   TEWEN  =     -2274.95761532
  -Hartree energ DENC   =      -683.69775857
  -exchange      EXHF   =         0.00000000
  -V(xc)+E(xc)   XCENC  =       137.44095482
  PAW double counting   =      4590.04551053    -4595.88306750
  entropy T*S    EENTRO =         0.00671860
  eigenvalues    EBANDS =      -332.91631051
  atomic energy  EATOM  =      2952.05274943
  ---------------------------------------------------
  free energy    TOTEN  =       -41.20932084 eV

  energy without entropy =      -41.21603944  energy(sigma->0) =      -41.21156037


--------------------------------------------------------------------------------------------------------




----------------------------------------- Iteration    1(   3)  ---------------------------------------


    POTLOK:  cpu time    0.00: real time    0.00
    SETDIJ:  cpu time    0.00: real time    0.00
     EDDAV:  cpu time    0.42: real time    0.42
       DOS:  cpu time    0.00: real time    0.00
    CHARGE:  cpu time    0.01: real time    0.01
    MIXING:  cpu time    0.00: real time    0.00
    --------------------------------------------
      LOOP:  cpu time    0.44: real time    0.44

 eigenvalue-minimisations  :  3146
 total energy-change (2. order) : 0.1129795E+01  (-0.8575323E+00)
 number of electron      36.0000069 magnetization 
 augmentation part       11.1820178 magnetization 

 Broyden mixing:
  rms(total) = 0.48181E+00    rms(broyden)= 0.48174E+00
  rms(prec ) = 0.69095E+00
  weight for this iteration     100.00

 eigenvalues of (default mixing * dielectric matrix)
  average eigenvalue GAMMA=   0.9503
  1.2578  0.6428

 Free energy of the ion-electron system (eV)
  ---------------------------------------------------
  alpha Z        PSCENC =       166.69949767
  Ewald energy   TEWEN  =     -2274.95761532
  -Hartree energ DENC   =      -686.60048701
  -exchange      EXHF   =         0.00000000
  -V(xc)+E(xc)   XCENC  =       137.78785248
  PAW double counting   =      4113.65431967    -4120.07691848
  entropy T*S    EENTRO =         0.00657674
  eigenvalues    EBANDS =      -328.64550064
  atomic energy  EATOM  =      2952.05274943
  ---------------------------------------------------
  free energy    TOTEN  =       -40.07952546 eV

  energy without entropy =      -40.08610220  energy(sigma->0) =      -40.08171771


--------------------------------------------------------------------------------------------------------




----------------------------------------- Iteration    1(   4)  ---------------------------------------


    POTLOK:  cpu time    0.00: real time    0.00
    SETDIJ:  cpu time    0.00: real time    0.00
     EDDAV:  cpu time    0.75: real time    0.75
       DOS:  cpu time    0.00: real time    0.00
    CHARGE:  cpu time    0.02: real time    0.02
    MIXING:  cpu time    0.00: real time    0.00
    --------------------------------------------
      LOOP:  cpu time    0.77: real time    0.77

 eigenvalue-minimisations  :  4554
 total energy-change (2. order) : 0.5449661E-01  (-0.1071295E+00)
 number of electron      36.0000071 magnetization 
 augmentation part       11.1124597 magnetization 

 Broyden mixing:
  rms(total) = 0.20738E+00    rms(broyden)= 0.20736E+00
  rms(prec ) = 0.23718E+00
  weight for this iteration     100.00

 eigenvalues of (default mixing * dielectric matrix)
  average eigenvalue GAMMA=   1.2712
  1.6523  1.5131  0.6484

 Free energy of the ion-electron system (eV)
  ---------------------------------------------------
  alpha Z        PSCENC =       166.69949767
  Ewald energy   TEWEN  =     -2274.95761532
  -Hartree energ DENC   =      -686.95415322
  -exchange      EXHF   =         0.00000000
  -V(xc)+E(xc)   XCENC  =       137.71412041
  PAW double counting   =      3903.95546484    -3910.33325571
  entropy T*S    EENTRO =         0.00681892
  eigenvalues    EBANDS =      -328.20865588
  atomic energy  EATOM  =      2952.05274943
  ---------------------------------------------------
  free energy    TOTEN  =       -40.02502886 eV

  energy without entropy =      -40.03184778  energy(sigma->0) =      -40.02730183


--------------------------------------------------------------------------------------------------------




----------------------------------------- Iteration    1(   5)  ---------------------------------------


    POTLOK:  cpu time    0.00: real time    0.00
    SETDIJ:  cpu time    0.00: real time    0.00
     EDDAV:  cpu time    0.79: real time    0.79
       DOS:  cpu time    0.00: real time    0.00
    CHARGE:  cpu time    0.01: real time    0.01
    MIXING:  cpu time    0.00: real time    0.00
    --------------------------------------------
      LOOP:  cpu time    0.81: real time    0.81

 eigenvalue-minimisations  :  4818
 total energy-change (2. order) :-0.1402496E-02  (-0.5687898E-02)
 number of electron      36.0000071 magnetization 
 augmentation part       11.1277109 magnetization 

 Broyden mixing:
  rms(total) = 0.93529E-01    rms(broyden)= 0.93523E-01
  rms(prec ) = 0.11714E+00
  weight for this iteration     100.00

 eigenvalues of (default mixing * dielectric matrix)
  average eigenvalue GAMMA=   1.3245
  2.4213  1.3772  0.8837  0.6158

 Free energy of the ion-electron system (eV)
  ---------------------------------------------------
  alpha Z        PSCENC =       166.69949767
  Ewald energy   TEWEN  =     -2274.95761532
  -Hartree energ DENC   =      -686.23830353
  -exchange      EXHF   =         0.00000000
  -V(xc)+E(xc)   XCENC  =       137.69869460
  PAW double counting   =      3696.05282244    -3702.53823127
  entropy T*S    EENTRO =         0.00687396
  eigenvalues    EBANDS =      -328.80291934
  atomic energy  EATOM  =      2952.05274943
  ---------------------------------------------------
  free energy    TOTEN  =       -40.02643135 eV

  energy without entropy =      -40.03330532  energy(sigma->0) =      -40.02872268


--------------------------------------------------------------------------------------------------------




----------------------------------------- Iteration    1(   6)  ---------------------------------------


    POTLOK:  cpu time    0.00: real time    0.00
    SETDIJ:  cpu time    0.00: real time    0.00
     EDDAV:  cpu time    0.55: real time    0.55
       DOS:  cpu time    0.00: real time    0.00
    CHARGE:  cpu time    0.01: real time    0.01
    MIXING:  cpu time    0.00: real time    0.00
    --------------------------------------------
      LOOP:  cpu time    0.57: real time    0.57

 eigenvalue-minimisations  :  3894
 total energy-change (2. order) : 0.1230479E-02  (-0.1173698E-02)
 number of electron      36.0000071 magnetization 
 augmentation part       11.1245547 magnetization 

 Broyden mixing:
  rms(total) = 0.24181E-01    rms(broyden)= 0.24173E-01
  rms(prec ) = 0.32669E-01
  weight for this iteration     100.00

 eigenvalues of (default mixing * dielectric matrix)
  average eigenvalue GAMMA=   1.2348
  2.5250  1.3565  0.9765  0.6580  0.6580

 Free energy of the ion-electron system (eV)
  ---------------------------------------------------
  alpha Z        PSCENC =       166.69949767
  Ewald energy   TEWEN  =     -2274.95761532
  -Hartree energ DENC   =      -686.32652072
  -exchange      EXHF   =         0.00000000
  -V(xc)+E(xc)   XCENC  =       137.70387636
  PAW double counting   =      3604.42755375    -3610.94389370
  entropy T*S    EENTRO =         0.00685077
  eigenvalues    EBANDS =      -328.68769912
  atomic energy  EATOM  =      2952.05274943
  ---------------------------------------------------
  free energy    TOTEN  =       -40.02520087 eV

  energy without entropy =      -40.03205164  energy(sigma->0) =      -40.02748446


--------------------------------------------------------------------------------------------------------




----------------------------------------- Iteration    1(   7)  ---------------------------------------


    POTLOK:  cpu time    0.00: real time    0.00
    SETDIJ:  cpu time    0.00: real time    0.00
     EDDAV:  cpu time    0.88: real time    0.88
       DOS:  cpu time    0.00: real time    0.00
    CHARGE:  cpu time    0.01: real time    0.01
    MIXING:  cpu time    0.00: real time    0.00
    --------------------------------------------
      LOOP:  cpu time    0.90: real time    0.90

 eigenvalue-minimisations  :  5170
 total energy-change (2. order) : 0.1345153E-03  (-0.1476408E-03)
 number of electron      36.0000071 magnetization 
 augmentation part       11.1227901 magnetization 

 Broyden mixing:
  rms(total) = 0.48283E-02    rms(broyden)= 0.48267E-02
  rms(prec ) = 0.78711E-02
  weight for this iteration     100.00

 eigenvalues of (default mixing * dielectric matrix)
  average eigenvalue GAMMA=   1.2346
  2.4925  1.3597  1.2407  1.0087  0.6209  0.6850

 Free energy of the ion-electron system (eV)
  ---------------------------------------------------
  alpha Z        PSCENC =       166.69949767
  Ewald energy   TEWEN  =     -2274.95761532
  -Hartree energ DENC   =      -686.46685997
  -exchange      EXHF   =         0.00000000
  -V(xc)+E(xc)   XCENC  =       137.71126011
  PAW double counting   =      3579.89106305    -3586.41306854
  entropy T*S    EENTRO =         0.00685860
  eigenvalues    EBANDS =      -328.54895139
  atomic energy  EATOM  =      2952.05274943
  ---------------------------------------------------
  free energy    TOTEN  =       -40.02506636 eV

  energy without entropy =      -40.03192496  energy(sigma->0) =      -40.02735256


--------------------------------------------------------------------------------------------------------




----------------------------------------- Iteration    1(   8)  ---------------------------------------


    POTLOK:  cpu time    0.00: real time    0.00
    SETDIJ:  cpu time    0.00: real time    0.00
     EDDAV:  cpu time    0.65: real time    0.65
       DOS:  cpu time    0.00: real time    0.00
    --------------------------------------------
      LOOP:  cpu time    0.66: real time    0.66

 eigenvalue-minimisations  :  4092
 total energy-change (2. order) : 0.1047325E-04  (-0.1380918E-04)
 number of electron      36.0000071 magnetization 
 augmentation part       11.1227901 magnetization 

 Free energy of the ion-electron system (eV)
  ---------------------------------------------------
  alpha Z        PSCENC =       166.69949767
  Ewald energy   TEWEN  =     -2274.95761532
  -Hartree energ DENC   =      -686.52568419
  -exchange      EXHF   =         0.00000000
  -V(xc)+E(xc)   XCENC  =       137.71383431
  PAW double counting   =      3579.06253822    -3585.58154922
  entropy T*S    EENTRO =         0.00686663
  eigenvalues    EBANDS =      -328.49569340
  atomic energy  EATOM  =      2952.05274943
  ---------------------------------------------------
  free energy    TOTEN  =       -40.02505589 eV

  energy without entropy =      -40.03192251  energy(sigma->0) =      -40.02734476


--------------------------------------------------------------------------------------------------------




 average (electrostatic) potential at core
  the test charge radii are     1.0397  1.2658  0.7215
  (the norm of the test charge is              1.0000)
       1 -52.9591       2 -45.6550       3 -70.0634       4 -70.1026       5 -70.1702
 
 
 
 E-fermi :   3.6681     XC(G=0): -11.0058     alpha+bet :-13.2781


 k-point     1 :       0.0000    0.0000    0.0000
  band No.  band energies     occupation 
      1     -28.9209      2.00000
      2     -28.8939      2.00000
      3     -28.8793      2.00000
      4     -16.6267      2.00000
      5     -16.6235      2.00000
      6     -16.6178      2.00000
      7     -13.8647      2.00000
      8     -12.7818      2.00000
      9     -12.7343      2.00000
     10       0.6578      2.00000
     11       0.6700      2.00000
     12       0.6948      2.00000
     13       2.4063      2.00000
     14       2.4114      2.00000
     15       2.5548      2.00000
     16       3.0179      2.00004
     17       3.0887      2.00033
     18       3.1324      2.00101
     19       5.8143     -0.00000
     20       5.9878     -0.00000
     21       6.0703     -0.00000
     22       8.2667     -0.00000

 k-point     2 :       0.2000    0.0000    0.0000
  band No.  band energies     occupation 
      1     -28.9200      2.00000
      2     -28.9059      2.00000
      3     -28.8926      2.00000
      4     -16.7097      2.00000
      5     -16.6201      2.00000
      6     -16.6141      2.00000
      7     -13.6514      2.00000
      8     -12.7680      2.00000
      9     -12.6345      2.00000
     10       0.2475      2.00000
     11       0.6912      2.00000
     12       0.7189      2.00000
     13       1.8233      2.00000
     14       1.9798      2.00000
     15       2.2803      2.00000
     16       2.3487      2.00000
     17       2.9021      2.00000
     18       2.9894      2.00002
     19       6.1143     -0.00000
     20       6.4651     -0.00000
     21       6.5560     -0.00000
     22       8.4120     -0.00000

 k-point     3 :       0.4000    0.0000    0.0000
  band No.  band energies     occupation 
      1     -28.9484      2.00000
      2     -28.9179      2.00000
      3     -28.8909      2.00000
      4     -16.8333      2.00000
      5     -16.6143      2.00000
      6     -16.6082      2.00000
      7     -13.3083      2.00000
      8     -12.7444      2.00000
      9     -12.4530      2.00000
     10      -0.4760      2.00000
     11       0.8192      2.00000
     12       0.8504      2.00000
     13       1.0264      2.00000
     14       1.3118      2.00000
     15       1.5007      2.00000
     16       1.8729      2.00000
     17       2.7158      2.00000
     18       2.8722      2.00000
     19       6.2290     -0.00000
     20       7.4245     -0.00000
     21       7.5355     -0.00000
     22       8.4139     -0.00000

 k-point     4 :       0.0000    0.2000    0.0000
  band No.  band energies     occupation 
      1     -28.9240      2.00000
      2     -28.9163      2.00000
      3     -28.8783      2.00000
      4     -16.7062      2.00000
      5     -16.6229      2.00000
      6     -16.6146      2.00000
      7     -13.6477      2.00000
      8     -12.7548      2.00000
      9     -12.6501      2.00000
     10       0.2416      2.00000
     11       0.6758      2.00000
     12       0.7102      2.00000
     13       1.8144      2.00000
     14       1.9986      2.00000
     15       2.2593      2.00000
     16       2.3501      2.00000
     17       2.9017      2.00000
     18       3.0268      2.00006
     19       6.0333     -0.00000
     20       6.5270     -0.00000
     21       6.5929     -0.00000
     22       8.3724     -0.00000

 k-point     5 :       0.2000    0.2000    0.0000
  band No.  band energies     occupation 
      1     -28.9230      2.00000
      2     -28.9156      2.00000
      3     -28.9045      2.00000
      4     -16.7136      2.00000
      5     -16.6694      2.00000
      6     -16.6108      2.00000
      7     -13.4714      2.00000
      8     -12.7079      2.00000
      9     -12.5801      2.00000
     10       0.0348      2.00000
     11       0.4480      2.00000
     12       0.7248      2.00000
     13       1.1303      2.00000
     14       1.6827      2.00000
     15       1.9336      2.00000
     16       2.3642      2.00000
     17       2.8118      2.00000
     18       2.8604      2.00000
     19       6.4905     -0.00000
     20       6.6675     -0.00000
     21       6.8155     -0.00000
     22       8.8530     -0.00000

 k-point     6 :       0.4000    0.2000    0.0000
  band No.  band energies     occupation 
      1     -28.9476      2.00000
      2     -28.9213      2.00000
      3     -28.9134      2.00000
      4     -16.8015      2.00000
      5     -16.6631      2.00000
      6     -16.6045      2.00000
      7     -13.2111      2.00000
      8     -12.6509      2.00000
      9     -12.4021      2.00000
     10      -0.5023      2.00000
     11      -0.0339      2.00000
     12       0.5281      2.00000
     13       0.8304      2.00000
     14       1.1735      2.00000
     15       1.6101      2.00000
     16       2.0565      2.00000
     17       2.6543      2.00000
     18       2.8195      2.00000
     19       6.6761     -0.00000
     20       7.4517     -0.00000
     21       7.5569     -0.00000
     22       8.9569     -0.00000

 k-point     7 :      -0.4000    0.2000    0.0000
  band No.  band energies     occupation 
      1     -28.9476      2.00000
      2     -28.9213      2.00000
      3     -28.9133      2.00000
      4     -16.8013      2.00000
      5     -16.6634      2.00000
      6     -16.6044      2.00000
      7     -13.2110      2.00000
      8     -12.6506      2.00000
      9     -12.4022      2.00000
     10      -0.5202      2.00000
     11      -0.0465      2.00000
     12       0.5635      2.00000
     13       0.8244      2.00000
     14       1.1800      2.00000
     15       1.6128      2.00000
     16       2.0503      2.00000
     17       2.6550      2.00000
     18       2.8220      2.00000
     19       6.6727     -0.00000
     20       7.4464     -0.00000
     21       7.5616     -0.00000
     22       8.9574     -0.00000

 k-point     8 :      -0.2000    0.2000    0.0000
  band No.  band energies     occupation 
      1     -28.9230      2.00000
      2     -28.9157      2.00000
      3     -28.9044      2.00000
      4     -16.7124      2.00000
      5     -16.6707      2.00000
      6     -16.6108      2.00000
      7     -13.4709      2.00000
      8     -12.7076      2.00000
      9     -12.5804      2.00000
     10       0.0189      2.00000
     11       0.4074      2.00000
     12       0.7215      2.00000
     13       1.1918      2.00000
     14       1.6874      2.00000
     15       1.9400      2.00000
     16       2.3476      2.00000
     17       2.8130      2.00000
     18       2.8780      2.00000
     19       6.4630     -0.00000
     20       6.6756     -0.00000
     21       6.8210     -0.00000
     22       8.8566     -0.00000

 k-point     9 :       0.0000    0.4000    0.0000
  band No.  band energies     occupation 
      1     -28.9637      2.00000
      2     -28.9173      2.00000
      3     -28.8765      2.00000
      4     -16.8296      2.00000
      5     -16.6171      2.00000
      6     -16.6087      2.00000
      7     -13.2967      2.00000
      8     -12.7274      2.00000
      9     -12.4773      2.00000
     10      -0.5153      2.00000
     11       0.7924      2.00000
     12       0.8122      2.00000
     13       1.0728      2.00000
     14       1.3330      2.00000
     15       1.4467      2.00000
     16       1.8609      2.00000
     17       2.7756      2.00000
     18       2.9284      2.00000
     19       6.1451     -0.00000
     20       7.4844     -0.00000
     21       7.5490     -0.00000
     22       8.3785     -0.00000

 k-point    10 :       0.2000    0.4000    0.0000
  band No.  band energies     occupation 
      1     -28.9629      2.00000
      2     -28.9165      2.00000
      3     -28.9030      2.00000
      4     -16.7979      2.00000
      5     -16.6664      2.00000
      6     -16.6045      2.00000
      7     -13.2059      2.00000
      8     -12.6301      2.00000
      9     -12.4252      2.00000
     10      -0.5372      2.00000
     11      -0.0505      2.00000
     12       0.5549      2.00000
     13       0.8094      2.00000
     14       1.1788      2.00000
     15       1.5988      2.00000
     16       2.0703      2.00000
     17       2.7034      2.00000
     18       2.8129      2.00000
     19       6.6131     -0.00000
     20       7.4973     -0.00000
     21       7.5641     -0.00000
     22       8.9393     -0.00000

 k-point    11 :       0.4000    0.4000    0.0000
  band No.  band energies     occupation 
      1     -28.9616      2.00000
      2     -28.9462      2.00000
      3     -28.9144      2.00000
      4     -16.7539      2.00000
      5     -16.7371      2.00000
      6     -16.5975      2.00000
      7     -13.1464      2.00000
      8     -12.3804      2.00000
      9     -12.3167      2.00000
     10      -0.8780      2.00000
     11      -0.5834      2.00000
     12      -0.2926      2.00000
     13       0.8256      2.00000
     14       0.9873      2.00000
     15       1.6596      2.00000
     16       1.8047      2.00000
     17       2.1996      2.00000
     18       3.4805      2.03492
     19       7.4886     -0.00000
     20       7.5692     -0.00000
     21       7.8496     -0.00000
     22       9.1539      0.00000

 k-point    12 :      -0.4000    0.4000    0.0000
  band No.  band energies     occupation 
      1     -28.9616      2.00000
      2     -28.9461      2.00000
      3     -28.9144      2.00000
      4     -16.7526      2.00000
      5     -16.7384      2.00000
      6     -16.5975      2.00000
      7     -13.1465      2.00000
      8     -12.3796      2.00000
      9     -12.3173      2.00000
     10      -0.8974      2.00000
     11      -0.5910      2.00000
     12      -0.2637      2.00000
     13       0.8168      2.00000
     14       0.9970      2.00000
     15       1.6682      2.00000
     16       1.7935      2.00000
     17       2.2013      2.00000
     18       3.4803      2.03522
     19       7.4853     -0.00000
     20       7.5682     -0.00000
     21       7.8536     -0.00000
     22       9.1535      0.00000

 k-point    13 :      -0.2000    0.4000    0.0000
  band No.  band energies     occupation 
      1     -28.9629      2.00000
      2     -28.9165      2.00000
      3     -28.9030      2.00000
      4     -16.7977      2.00000
      5     -16.6667      2.00000
      6     -16.6045      2.00000
      7     -13.2058      2.00000
      8     -12.6298      2.00000
      9     -12.4254      2.00000
     10      -0.5547      2.00000
     11      -0.0608      2.00000
     12       0.5874      2.00000
     13       0.8038      2.00000
     14       1.1851      2.00000
     15       1.6011      2.00000
     16       2.0646      2.00000
     17       2.7030      2.00000
     18       2.8163      2.00000
     19       6.6099     -0.00000
     20       7.4893     -0.00000
     21       7.5712     -0.00000
     22       8.9399     -0.00000

 k-point    14 :       0.0000    0.0000    0.2000
  band No.  band energies     occupation 
      1     -28.9474      2.00000
      2     -28.8930      2.00000
      3     -28.8782      2.00000
      4     -16.7012      2.00000
      5     -16.6229      2.00000
      6     -16.6194      2.00000
      7     -13.6409      2.00000
      8     -12.7274      2.00000
      9     -12.6818      2.00000
     10       0.2328      2.00000
     11       0.6665      2.00000
     12       0.6787      2.00000
     13       1.8755      2.00000
     14       1.9555      2.00000
     15       2.2502      2.00000
     16       2.2735      2.00000
     17       2.9933      2.00002
     18       3.0587      2.00014
     19       5.8911     -0.00000
     20       6.6264     -0.00000
     21       6.6589     -0.00000
     22       8.3132     -0.00000

 k-point    15 :       0.2000    0.0000    0.2000
  band No.  band energies     occupation 
      1     -28.9464      2.00000
      2     -28.9050      2.00000
      3     -28.8918      2.00000
      4     -16.7116      2.00000
      5     -16.6664      2.00000
      6     -16.6156      2.00000
      7     -13.4608      2.00000
      8     -12.6994      2.00000
      9     -12.5969      2.00000
     10       0.0297      2.00000
     11       0.4326      2.00000
     12       0.6962      2.00000
     13       1.0955      2.00000
     14       1.7043      2.00000
     15       2.0670      2.00000
     16       2.3589      2.00000
     17       2.7620      2.00000
     18       2.7982      2.00000
     19       6.4905     -0.00000
     20       6.7055     -0.00000
     21       6.8520     -0.00000
     22       8.7922     -0.00000

 k-point    16 :       0.4000    0.0000    0.2000
  band No.  band energies     occupation 
      1     -28.9483      2.00000
      2     -28.9439      2.00000
      3     -28.8902      2.00000
      4     -16.8016      2.00000
      5     -16.6583      2.00000
      6     -16.6093      2.00000
      7     -13.1881      2.00000
      8     -12.6705      2.00000
      9     -12.4035      2.00000
     10      -0.5016      2.00000
     11      -0.0652      2.00000
     12       0.5266      2.00000
     13       0.8013      2.00000
     14       1.2087      2.00000
     15       1.6286      2.00000
     16       2.1523      2.00000
     17       2.5477      2.00000
     18       2.7885      2.00000
     19       6.7468     -0.00000
     20       7.4466     -0.00000
     21       7.5620     -0.00000
     22       8.9394     -0.00000

 k-point    17 :      -0.4000    0.0000    0.2000
  band No.  band energies     occupation 
      1     -28.9485      2.00000
      2     -28.9437      2.00000
      3     -28.8902      2.00000
      4     -16.8013      2.00000
      5     -16.6586      2.00000
      6     -16.6092      2.00000
      7     -13.1878      2.00000
      8     -12.6702      2.00000
      9     -12.4037      2.00000
     10      -0.5302      2.00000
     11      -0.0796      2.00000
     12       0.5769      2.00000
     13       0.7933      2.00000
     14       1.2182      2.00000
     15       1.6300      2.00000
     16       2.1461      2.00000
     17       2.5484      2.00000
     18       2.7907      2.00000
     19       6.7429     -0.00000
     20       7.4437     -0.00000
     21       7.5638     -0.00000
     22       8.9381     -0.00000

 k-point    18 :      -0.2000    0.0000    0.2000
  band No.  band energies     occupation 
      1     -28.9465      2.00000
      2     -28.9050      2.00000
      3     -28.8918      2.00000
      4     -16.7098      2.00000
      5     -16.6683      2.00000
      6     -16.6156      2.00000
      7     -13.4600      2.00000
      8     -12.6991      2.00000
      9     -12.5974      2.00000
     10       0.0030      2.00000
     11       0.3766      2.00000
     12       0.6911      2.00000
     13       1.1849      2.00000
     14       1.7115      2.00000
     15       2.0801      2.00000
     16       2.3388      2.00000
     17       2.7645      2.00000
     18       2.8149      2.00000
     19       6.4634     -0.00000
     20       6.7170     -0.00000
     21       6.8486     -0.00000
     22       8.7944     -0.00000

 k-point    19 :       0.0000    0.2000    0.2000
  band No.  band energies     occupation 
      1     -28.9467      2.00000
      2     -28.9194      2.00000
      3     -28.8772      2.00000
      4     -16.7104      2.00000
      5     -16.6642      2.00000
      6     -16.6189      2.00000
      7     -13.4552      2.00000
      8     -12.6856      2.00000
      9     -12.6152      2.00000
     10       0.0355      2.00000
     11       0.4522      2.00000
     12       0.6833      2.00000
     13       1.0405      2.00000
     14       1.7086      2.00000
     15       2.1502      2.00000
     16       2.3720      2.00000
     17       2.7235      2.00000
     18       2.7413      2.00000
     19       6.5455     -0.00000
     20       6.6828     -0.00000
     21       6.8723     -0.00000
     22       8.7558     -0.00000

 k-point    20 :       0.2000    0.2000    0.2000
  band No.  band energies     occupation 
      1     -28.9456      2.00000
      2     -28.9185      2.00000
      3     -28.9037      2.00000
      4     -16.7114      2.00000
      5     -16.6607      2.00000
      6     -16.6547      2.00000
      7     -13.2835      2.00000
      8     -12.6258      2.00000
      9     -12.5815      2.00000
     10      -0.1301      2.00000
     11       0.3947      2.00000
     12       0.4281      2.00000
     13       1.0272      2.00000
     14       1.0542      2.00000
     15       1.4277      2.00000
     16       2.5904      2.00000
     17       2.6551      2.00000
     18       2.9194      2.00000
     19       6.8217     -0.00000
     20       6.9377     -0.00000
     21       6.9578     -0.00000
     22       9.4811      0.00000

 k-point    21 :       0.4000    0.2000    0.2000
  band No.  band energies     occupation 
      1     -28.9472      2.00000
      2     -28.9430      2.00000
      3     -28.9167      2.00000
      4     -16.7755      2.00000
      5     -16.6624      2.00000
      6     -16.6399      2.00000
      7     -13.0337      2.00000
      8     -12.6249      2.00000
      9     -12.3816      2.00000
     10      -0.5213      2.00000
     11      -0.0947      2.00000
     12       0.1833      2.00000
     13       0.3500      2.00000
     14       0.7182      2.00000
     15       1.3044      2.00000
     16       2.5618      2.00000
     17       2.5747      2.00000
     18       2.9618      2.00001
     19       7.0521     -0.00000
     20       7.5206     -0.00000
     21       7.6348     -0.00000
     22       9.8079      0.00000

 k-point    22 :      -0.4000    0.2000    0.2000
  band No.  band energies     occupation 
      1     -28.9475      2.00000
      2     -28.9428      2.00000
      3     -28.9166      2.00000
      4     -16.7750      2.00000
      5     -16.6630      2.00000
      6     -16.6398      2.00000
      7     -13.0329      2.00000
      8     -12.6249      2.00000
      9     -12.3818      2.00000
     10      -0.5592      2.00000
     11      -0.1175      2.00000
     12       0.1683      2.00000
     13       0.4025      2.00000
     14       0.7357      2.00000
     15       1.3196      2.00000
     16       2.5684      2.00000
     17       2.5793      2.00000
     18       2.9538      2.00001
     19       7.0490     -0.00000
     20       7.5073     -0.00000
     21       7.6383     -0.00000
     22       9.8248      0.00000

 k-point    23 :      -0.2000    0.2000    0.2000
  band No.  band energies     occupation 
      1     -28.9456      2.00000
      2     -28.9186      2.00000
      3     -28.9036      2.00000
      4     -16.7095      2.00000
      5     -16.6626      2.00000
      6     -16.6548      2.00000
      7     -13.2822      2.00000
      8     -12.6260      2.00000
      9     -12.5818      2.00000
     10      -0.1565      2.00000
     11       0.3435      2.00000
     12       0.3982      2.00000
     13       1.0121      2.00000
     14       1.0887      2.00000
     15       1.5235      2.00000
     16       2.5981      2.00000
     17       2.6943      2.00000
     18       2.9039      2.00000
     19       6.7587     -0.00000
     20       6.9477     -0.00000
     21       6.9649     -0.00000
     22       9.4845      0.00000

 k-point    24 :       0.0000    0.4000    0.2000
  band No.  band energies     occupation 
      1     -28.9633      2.00000
      2     -28.9438      2.00000
      3     -28.8755      2.00000
      4     -16.7982      2.00000
      5     -16.6581      2.00000
      6     -16.6126      2.00000
      7     -13.1693      2.00000
      8     -12.6606      2.00000
      9     -12.4282      2.00000
     10      -0.5247      2.00000
     11      -0.0944      2.00000
     12       0.5350      2.00000
     13       0.7778      2.00000
     14       1.2047      2.00000
     15       1.6407      2.00000
     16       2.2501      2.00000
     17       2.5073      2.00000
     18       2.7612      2.00000
     19       6.7296     -0.00000
     20       7.4965     -0.00000
     21       7.5636     -0.00000
     22       8.9125     -0.00000

 k-point    25 :       0.2000    0.4000    0.2000
  band No.  band energies     occupation 
      1     -28.9623      2.00000
      2     -28.9427      2.00000
      3     -28.9021      2.00000
      4     -16.7721      2.00000
      5     -16.6636      2.00000
      6     -16.6419      2.00000
      7     -13.0231      2.00000
      8     -12.6084      2.00000
      9     -12.4060      2.00000
     10      -0.5407      2.00000
     11      -0.1208      2.00000
     12       0.1549      2.00000
     13       0.3426      2.00000
     14       0.7333      2.00000
     15       1.3587      2.00000
     16       2.5451      2.00000
     17       2.6116      2.00000
     18       2.9521      2.00001
     19       7.0087     -0.00000
     20       7.5629     -0.00000
     21       7.6263     -0.00000
     22       9.7865      0.00000

[...]
     17       3.3631      2.06103
     18       3.4591      1.82477
     19       7.8142     -0.00000
     20       7.9702     -0.00000
     21       8.0276     -0.00000
     22       9.5550      0.00000

 k-point    53 :      -0.2000    0.4000    0.4000
  band No.  band energies     occupation 
      1     -29.0395      2.00000
      2     -29.0312      2.00000
      3     -28.9833      2.00000
      4     -16.5694      2.00000
      5     -16.5176      2.00000
      6     -16.4238      2.00000
      7     -12.8907      2.00000
      8     -12.4761      2.00000
      9     -12.4028      2.00000
     10      -0.8272      2.00000
     11      -0.6065      2.00000
     12      -0.3458      2.00000
     13      -0.0388      2.00000
     14       0.2119      2.00000
     15       1.1492      2.00000
     16       2.6385      2.00000
     17       2.6643      2.00000
     18       3.4023      2.01069
     19       7.4557     -0.00000
     20       7.6492     -0.00000
     21       7.8364     -0.00000
     22       9.6143      0.00000

 k-point    54 :       0.0000   -0.4000    0.4000
  band No.  band energies     occupation 
      1     -29.0411      2.00000
      2     -29.0320      2.00000
      3     -28.9574      2.00000
      4     -16.5853      2.00000
      5     -16.5418      2.00000
      6     -16.3782      2.00000
      7     -13.1101      2.00000
      8     -12.4672      2.00000
      9     -12.3810      2.00000
     10      -0.9698      2.00000
     11      -0.7102      2.00000
     12      -0.1742      2.00000
     13       0.6625      2.00000
     14       0.9320      2.00000
     15       1.7363      2.00000
     16       1.7869      2.00000
     17       2.1660      2.00000
     18       3.3898      2.03244
     19       7.3938     -0.00000
     20       7.5006     -0.00000
     21       7.7804     -0.00000
     22       9.0631      0.00000

 k-point    55 :       0.2000   -0.4000    0.4000
  band No.  band energies     occupation 
      1     -29.0398      2.00000
      2     -29.0308      2.00000
      3     -28.9834      2.00000
      4     -16.5670      2.00000
      5     -16.5209      2.00000
      6     -16.4234      2.00000
      7     -12.8890      2.00000
      8     -12.4692      2.00000
      9     -12.4104      2.00000
     10      -0.8650      2.00000
     11      -0.6960      2.00000
     12      -0.1695      2.00000
     13       0.0054      2.00000
     14       0.1691      2.00000
     15       1.1046      2.00000
     16       2.6318      2.00000
     17       2.6498      2.00000
     18       3.3987      2.01753
     19       7.4823     -0.00000
     20       7.6289     -0.00000
     21       7.8501     -0.00000
     22       9.6493      0.00000

 k-point    56 :       0.4000   -0.4000    0.4000
  band No.  band energies     occupation 
      1     -29.0379      2.00000
      2     -29.0304      2.00000
      3     -29.0235      2.00000
      4     -16.5391      2.00000
      5     -16.4944      2.00000
      6     -16.4850      2.00000
      7     -12.5444      2.00000
      8     -12.4545      2.00000
      9     -12.4408      2.00000
     10      -0.8491      2.00000
     11      -0.6473      2.00000
     12      -0.5346      2.00000
     13      -0.4447      2.00000
     14      -0.1820      2.00000
     15      -0.0141      2.00000
     16       3.3247      2.07064
     17       3.3598      2.06314
     18       3.4433      1.89225
     19       7.8152     -0.00000
     20       7.9775     -0.00000
     21       8.0178     -0.00000
     22       9.5151      0.00000

 k-point    57 :      -0.4000   -0.4000    0.4000
  band No.  band energies     occupation 
      1     -29.0381      2.00000
      2     -29.0301      2.00000
      3     -29.0236      2.00000
      4     -16.5390      2.00000
      5     -16.4942      2.00000
      6     -16.4852      2.00000
      7     -12.5447      2.00000
      8     -12.4522      2.00000
      9     -12.4430      2.00000
     10      -0.8465      2.00000
     11      -0.6555      2.00000
     12      -0.5453      2.00000
     13      -0.4413      2.00000
     14      -0.1734      2.00000
     15      -0.0084      2.00000
     16       3.3336      2.07086
     17       3.3544      2.06593
     18       3.4422      1.89656
     19       7.8154     -0.00000
     20       7.9808     -0.00000
     21       8.0140     -0.00000
     22       9.5061      0.00000

 k-point    58 :      -0.2000   -0.4000    0.4000
  band No.  band energies     occupation 
      1     -29.0399      2.00000
      2     -29.0307      2.00000
      3     -28.9834      2.00000
      4     -16.5668      2.00000
      5     -16.5207      2.00000
      6     -16.4235      2.00000
      7     -12.8892      2.00000
      8     -12.4688      2.00000
      9     -12.4110      2.00000
     10      -0.8658      2.00000
     11      -0.6977      2.00000
     12      -0.1758      2.00000
     13       0.0026      2.00000
     14       0.1733      2.00000
     15       1.1150      2.00000
     16       2.6275      2.00000
     17       2.6577      2.00000
     18       3.3986      2.01777
     19       7.4834     -0.00000
     20       7.6231     -0.00000
     21       7.8499     -0.00000
     22       9.6432      0.00000

 k-point    59 :       0.0000   -0.2000    0.4000
  band No.  band energies     occupation 
      1     -29.0403      2.00000
      2     -28.9920      2.00000
      3     -28.9590      2.00000
      4     -16.6312      2.00000
      5     -16.4653      2.00000
      6     -16.3864      2.00000
      7     -13.1859      2.00000
      8     -12.7012      2.00000
      9     -12.4768      2.00000
     10      -0.6780      2.00000
     11      -0.1902      2.00000
     12       0.6174      2.00000
     13       0.7273      2.00000
     14       1.1947      2.00000
     15       1.5749      2.00000
     16       2.1540      2.00000
     17       2.5366      2.00000
     18       2.7000      2.00000
     19       6.5776     -0.00000
     20       7.3731     -0.00000
     21       7.5460     -0.00000
     22       8.8509     -0.00000

 k-point    60 :       0.2000   -0.2000    0.4000
  band No.  band energies     occupation 
      1     -29.0393      2.00000
      2     -28.9921      2.00000
      3     -28.9840      2.00000
      4     -16.6018      2.00000
      5     -16.4611      2.00000
      6     -16.4323      2.00000
      7     -13.0302      2.00000
      8     -12.6544      2.00000
      9     -12.4611      2.00000
     10      -0.6611      2.00000
     11      -0.2820      2.00000
     12       0.0746      2.00000
     13       0.3583      2.00000
     14       0.7556      2.00000
     15       1.5005      2.00000
     16       2.5293      2.00000
     17       2.6437      2.00000
     18       2.7828      2.00000
     19       6.8108     -0.00000
     20       7.4677     -0.00000
     21       7.5711     -0.00000
     22       9.6624      0.00000

 k-point    61 :       0.4000   -0.2000    0.4000
  band No.  band energies     occupation 
      1     -29.0380      2.00000
      2     -29.0274      2.00000
      3     -28.9886      2.00000
      4     -16.5619      2.00000
      5     -16.5222      2.00000
      6     -16.4295      2.00000
      7     -12.9004      2.00000
      8     -12.4614      2.00000
      9     -12.4049      2.00000
     10      -0.8153      2.00000
     11      -0.6372      2.00000
     12      -0.3689      2.00000
     13      -0.0342      2.00000
     14       0.2473      2.00000
     15       1.1829      2.00000
     16       2.6546      2.00000
     17       2.6720      2.00000
     18       3.3784      2.04750
     19       7.4454     -0.00000
     20       7.6286     -0.00000
     21       7.8616     -0.00000
     22       9.5918      0.00000

 k-point    62 :      -0.4000   -0.2000    0.4000
  band No.  band energies     occupation 
      1     -29.0383      2.00000
      2     -29.0271      2.00000
      3     -28.9887      2.00000
      4     -16.5606      2.00000
      5     -16.5243      2.00000
      6     -16.4293      2.00000
      7     -12.8996      2.00000
      8     -12.4566      2.00000
      9     -12.4093      2.00000
     10      -0.8471      2.00000
     11      -0.6882      2.00000
     12      -0.2491      2.00000
     13       0.0122      2.00000
     14       0.1954      2.00000
     15       1.1528      2.00000
     16       2.6275      2.00000
     17       2.6722      2.00000
     18       3.3817      2.04362
     19       7.4828     -0.00000
     20       7.5960     -0.00000
     21       7.8766     -0.00000
     22       9.6402      0.00000

 k-point    63 :      -0.2000   -0.2000    0.4000
  band No.  band energies     occupation 
      1     -29.0394      2.00000
      2     -28.9912      2.00000
      3     -28.9848      2.00000
      4     -16.6018      2.00000
      5     -16.4631      2.00000
      6     -16.4313      2.00000
      7     -13.0268      2.00000
      8     -12.6574      2.00000
      9     -12.4596      2.00000
     10      -0.7003      2.00000
     11      -0.2436      2.00000
     12       0.0117      2.00000
     13       0.4547      2.00000
     14       0.8441      2.00000
     15       1.4062      2.00000
     16       2.5205      2.00000
     17       2.5448      2.00000
     18       2.8092      2.00000
     19       6.9043     -0.00000
     20       7.4164     -0.00000
     21       7.5910     -0.00000
     22       9.7197      0.00000


--------------------------------------------------------------------------------------------------------


 soft charge-density along one line, spin component           1
         0         1         2         3         4         5         6         7         8         9
 total charge-density along one line
 
 pseudopotential strength for first ion, spin component:           1
-30.170  -0.008  -0.004   7.059   0.004   0.002   0.002   0.002
 -0.008 -30.167  -0.005   0.004   7.058   0.003  -0.000   0.002
 -0.004  -0.005 -30.174   0.002   0.003   7.062   0.002  -0.000
  7.059   0.004   0.002   3.778  -0.002  -0.001   0.001   0.002
  0.004   7.058   0.003  -0.002   3.779  -0.001   0.000   0.002
  0.002   0.003   7.062  -0.001  -0.001   3.777   0.002   0.000
  0.002  -0.000   0.002   0.001   0.000   0.002  -3.631  -0.003
  0.002   0.002  -0.000   0.002   0.002   0.000  -0.003  -3.628
  0.006  -0.014   0.004  -0.004   0.008  -0.003   0.002  -0.002
 -0.000   0.002   0.002   0.000   0.001   0.002  -0.004  -0.002
  0.010  -0.000  -0.007  -0.006   0.000   0.004  -0.000   0.003
  0.002  -0.000   0.002   0.001   0.000   0.002  -3.805  -0.003
  0.002   0.003  -0.000   0.002   0.002   0.000  -0.003  -3.801
  0.008  -0.017   0.005  -0.004   0.010  -0.003   0.003  -0.002
 -0.000   0.002   0.002   0.000   0.001   0.002  -0.005  -0.003
  0.013  -0.000  -0.009  -0.007   0.000   0.005  -0.000   0.004
  0.004   0.005   0.003  -0.001  -0.001  -0.001   0.001   0.002
  0.012   0.014   0.009  -0.003  -0.003  -0.002   0.002   0.004
 total augmentation occupancy for first ion, spin component:           1
  1.976  -0.000  -0.000  -0.064  -0.001  -0.000  -0.005  -0.011  -0.034   0.001  -0.055   0.005   0.010   0.029  -0.001   0.048
 -0.000   1.977  -0.000  -0.001  -0.064  -0.000   0.001  -0.010   0.073  -0.006   0.001  -0.001   0.009  -0.063   0.006  -0.001
 -0.000  -0.000   1.976  -0.000  -0.000  -0.065  -0.007   0.001  -0.023  -0.009   0.040   0.007  -0.001   0.020   0.008  -0.034
 -0.064  -0.001  -0.000   0.336  -0.009  -0.005  -0.067  -0.122  -0.241   0.006  -0.395   0.047   0.087   0.169  -0.005   0.275
 -0.001  -0.064  -0.000  -0.009   0.339  -0.005   0.006  -0.115   0.521  -0.073   0.008  -0.005   0.082  -0.363   0.052  -0.006
 -0.000  -0.000  -0.065  -0.005  -0.005   0.333  -0.090   0.006  -0.167  -0.104   0.285   0.063  -0.005   0.117   0.074  -0.198
 -0.005   0.001  -0.007  -0.067   0.006  -0.090   3.931   0.010   0.267  -0.011   0.006  -2.462  -0.011  -0.194   0.002  -0.004
 -0.011  -0.010   0.001  -0.122  -0.115   0.006   0.010   4.169  -0.245   0.019   0.403  -0.011  -2.620   0.179  -0.017  -0.294
 -0.034   0.073  -0.023  -0.241   0.521  -0.167   0.267  -0.245  13.713  -0.166   0.084  -0.194   0.179  -9.539   0.121  -0.062
  0.001  -0.006  -0.009   0.006  -0.073  -0.104  -0.011   0.019  -0.166   4.004  -0.262   0.002  -0.017   0.121  -2.510   0.191
 -0.055   0.001   0.040  -0.395   0.008   0.285   0.006   0.403   0.084  -0.262  13.475  -0.004  -0.294  -0.062   0.191  -9.364
  0.005  -0.001   0.007   0.047  -0.005   0.063  -2.462  -0.011  -0.194   0.002  -0.004   1.551   0.011   0.142   0.002   0.003
  0.010   0.009  -0.001   0.087   0.082  -0.005  -0.011  -2.620   0.179  -0.017  -0.294   0.011   1.657  -0.131   0.015   0.216
  0.029  -0.063   0.020   0.169  -0.363   0.117  -0.194   0.179  -9.539   0.121  -0.062   0.142  -0.131   6.707  -0.088   0.046
 -0.001   0.006   0.008  -0.005   0.052   0.074   0.002  -0.017   0.121  -2.510   0.191   0.002   0.015  -0.088   1.583  -0.140
  0.048  -0.001  -0.034   0.275  -0.006  -0.198  -0.004  -0.294  -0.062   0.191  -9.364   0.003   0.216   0.046  -0.140   6.576
  0.003   0.003   0.003   0.073   0.082   0.053  -0.099  -0.184   0.060  -0.117  -0.047   0.068   0.129  -0.043   0.081   0.033
  0.000   0.000  -0.000  -0.001  -0.001  -0.001   0.004   0.007  -0.001   0.004   0.001  -0.003  -0.005   0.001  -0.003  -0.001


------------------------ aborting loop because EDIFF is reached ----------------------------------------


    CHARGE:  cpu time    0.02: real time    0.02
    FORLOC:  cpu time    0.00: real time    0.00
    FORNL :  cpu time    0.12: real time    0.12
    STRESS:  cpu time    0.97: real time    1.23
    FORCOR:  cpu time    0.00: real time    0.01
    FORHAR:  cpu time    0.00: real time    0.00
    MIXING:  cpu time    0.00: real time    0.00
    OFIELD:  cpu time    0.00: real time    0.00

  FORCE on cell =-STRESS in cart. coord.  units (eV):
  Direction    XX          YY          ZZ          XY          YZ          ZX
  --------------------------------------------------------------------------------------
  Alpha Z   166.69950   166.69950   166.69950
  Ewald    -751.20265  -757.18192  -759.72772    -2.06235    -6.04331    -3.07544
  Hartree   234.83239   230.23655   228.02929    -0.95646    -3.04827    -1.47104
  E(xc)    -170.37814  -170.38391  -170.38549    -0.00486    -0.01402    -0.00701
  Local     -47.15560   -36.56450   -31.80015     3.00945     9.14465     4.54979
  n-local   -88.12811   -88.21863   -88.24984    -0.00540     0.01568    -0.00357
  augment   132.77604   132.79036   132.79774    -0.01408    -0.04719    -0.02217
  Kinetic   521.52069   521.91949   522.12574     0.24423     0.43025     0.28374
  Fock        0.00000     0.00000     0.00000     0.00000     0.00000     0.00000
  -------------------------------------------------------------------------------------
  Total      -1.03588    -0.70306    -0.51094     0.21053     0.43779     0.25431
  in kB     -28.36522   -19.25166   -13.99089     5.76478    11.98796     6.96358
  external pressure =      -20.54 kB  Pullay stress =        0.00 kB


 VOLUME and BASIS-vectors are now :
 -----------------------------------------------------------------------------
  energy-cutoff  :      400.00
  volume of cell :       58.51
      direct lattice vectors                 reciprocal lattice vectors
     3.882200000  0.000000000  0.000000000     0.257585905  0.000000000  0.000000000
     0.000000000  3.882200000  0.000000000     0.000000000  0.257585905  0.000000000
     0.000000000  0.000000000  3.882200000     0.000000000  0.000000000  0.257585905

  length of vectors
     3.882200000  3.882200000  3.882200000     0.257585905  0.257585905  0.257585905


 FORCES acting on ions
    electron-ion (+dipol)            ewald-force                    non-local-force                 convergence-correction
 -----------------------------------------------------------------------------------------------
   -.914E+00 -.490E+01 -.605E+01   0.800E+00 0.475E+01 0.586E+01   0.961E-01 0.144E+00 0.172E+00   -.129E-02 -.753E-02 -.701E-02
   0.256E+02 0.420E+02 0.486E+02   -.251E+02 -.413E+02 -.479E+02   -.421E+00 -.661E+00 -.760E+00   -.289E-02 -.327E-02 -.356E-02
   -.179E+02 -.621E+01 -.704E+01   0.208E+02 0.637E+01 0.719E+01   -.289E+01 -.996E-01 -.102E+00   0.387E-02 -.661E-01 -.581E-01
   -.217E+01 -.228E+02 -.513E+01   0.209E+01 0.268E+02 0.501E+01   0.117E+00 -.400E+01 0.153E+00   -.311E-01 0.199E-01 -.259E-01
   -.159E+01 -.358E+01 -.253E+02   0.143E+01 0.337E+01 0.298E+02   0.188E+00 0.239E+00 -.449E+01   -.203E-01 -.233E-01 0.136E-01
 -----------------------------------------------------------------------------------------------
   0.297E+01 0.446E+01 0.511E+01   0.244E-14 -.444E-15 0.355E-14   -.291E+01 -.438E+01 -.503E+01   -.517E-01 -.803E-01 -.810E-01
 
 
 POSITION                                       TOTAL-FORCE (eV/Angst)
 -----------------------------------------------------------------------------------
      0.04558      0.06462      0.07677        -0.020098     -0.016852     -0.027730
      2.03041      2.09356      2.12464        -0.002903     -0.005105     -0.000414
      1.92531     -0.04815     -0.05441         0.010668     -0.002431     -0.010639
     -0.03770      1.92065     -0.07098         0.006197      0.014979      0.002110
     -0.04257     -0.07084      1.92265         0.006136      0.009409      0.036673
 -----------------------------------------------------------------------------------
    total drift:                                0.006630      0.000744     -0.001274


--------------------------------------------------------------------------------------------------------



  FREE ENERGIE OF THE ION-ELECTRON SYSTEM (eV)
  ---------------------------------------------------
  free  energy   TOTEN  =       -40.10735709 eV

  energy  without entropy=      -40.11422697  energy(sigma->0) =      -40.10964705
 
 d Force = 0.6743705E-03[-0.856E-04, 0.143E-02]  d Energy = 0.5572705E-03 0.117E-03
 d Force = 0.8356334E+00[ 0.794E+00, 0.878E+00]  d Ewald  = 0.8355639E+00 0.694E-04


--------------------------------------------------------------------------------------------------------


    POTLOK:  cpu time    0.01: real time    0.01


--------------------------------------------------------------------------------------------------------


 stress matrix after NEB project (eV)
     -1.03588      0.21053      0.25431
      0.21053     -0.70306      0.43779
      0.25431      0.43779     -0.51094
  FORCES: max atom, RMS     0.038354    0.026316
  FORCE total and by dimension    0.058845    0.036673
  Stress total and by dimension    1.558751    1.035879


--------------------------------------------------------------------------------------------------------


  
 reached required accuracy - stopping structural energy minimisation
 writing wavefunctions
     LOOP+:  cpu time    5.46: real time    6.74
    4ORBIT:  cpu time    0.00: real time    0.00

 total amount of memory used by VASP on root node    61338. kBytes
========================================================================

   base      :      30000. kBytes
   nonl-proj :      29425. kBytes
   fftplans  :        145. kBytes
   grid      :        538. kBytes
   one-center:         77. kBytes
   wavefun   :       1153. kBytes
 
  
  
 General timing and accounting informations for this job:
 ========================================================
  
                  Total CPU time used (sec):       88.758
                            User time (sec):       86.928
                          System time (sec):        1.829
                         Elapsed time (sec):      114.619
  
                   Maximum memory used (kb):       87072.
                   Average memory used (kb):           0.
  
                          Minor page faults:        34277
                          Major page faults:            0
                 Voluntary context switches:          132
