 vasp.5.3.5 31Mar14 (build Dec 17 2015 22:09:37) complex                        
  
 executed on             LinuxIFC date 2017.03.19  16:23:43
 running on   22 total cores
 distrk:  each k-point on   22 cores,    1 groups
 distr:  one band on NCORES_PER_BAND=   1 cores,   22 groups


--------------------------------------------------------------------------------------------------------


 INCAR:
 POTCAR:    PAW_PBE Ti_pv 07Sep2000               
 POTCAR:    PAW_PBE Ca_pv 06Sep2000               
 POTCAR:    PAW_PBE O 08Apr2002                   

 ----------------------------------------------------------------------------- 
|                                                                             |
|           W    W    AA    RRRRR   N    N  II  N    N   GGGG   !!!           |
|           W    W   A  A   R    R  NN   N  II  NN   N  G    G  !!!           |
|           W    W  A    A  R    R  N N  N  II  N N  N  G       !!!           |
|           W WW W  AAAAAA  RRRRR   N  N N  II  N  N N  G  GGG   !            |
|           WW  WW  A    A  R   R   N   NN  II  N   NN  G    G                |
|           W    W  A    A  R    R  N    N  II  N    N   GGGG   !!!           |
|                                                                             |
|      For optimal performance we recommend to set                            |
|        NCORE= 4 - approx SQRT( number of cores)                             |
|      NCORE specifies how many cores store one orbital (NPAR=cpu/NCORE).     |
|      This setting can  greatly improve the performance of VASP for DFT.     |
|      The default, NPAR=number of cores might be grossly inefficient         |
|      on modern multi-core architectures or massively parallel machines.     |
|      Do your own testing !!!!                                               |
|      Unfortunately you need to use the default for GW and RPA calculations. |
|      (for HF NCORE is supported but not extensively tested yet)             |
|                                                                             |
 ----------------------------------------------------------------------------- 

 POTCAR:    PAW_PBE Ti_pv 07Sep2000               
   VRHFIN =Ti: d3 s1                                                            
   LEXCH  = PE                                                                  
   EATOM  =  1042.5995 eV,   76.6289 Ry                                         
                                                                                
   TITEL  = PAW_PBE Ti_pv 07Sep2000                                             
   LULTRA =        F    use ultrasoft PP ?                                      
   IUNSCR =        1    unscreen: 0-lin 1-nonlin 2-no                           
   RPACOR =    2.200    partial core radius                                     
   POMASS =   47.880; ZVAL   =   10.000    mass and valenz                      
   RCORE  =    2.500    outmost cutoff radius                                   
   RWIGS  =    2.500; RWIGS  =    1.323    wigner-seitz radius (au A)           
   ENMAX  =  222.335; ENMIN  =  166.751 eV                                      
   RCLOC  =    1.701    cutoff for local pot                                    
   LCOR   =        T    correct aug charges                                     
   LPAW   =        T    paw PP                                                  
   EAUG   =  482.848                                                            
   DEXC   =    0.000                                                            
   RMAX   =    2.564    core radius for proj-oper                               
   RAUG   =    1.300    factor for augmentation sphere                          
   RDEP   =    2.538    radius for radial grids                                 
   RDEPT  =    1.952    core radius for aug-charge                              
                                                                                
   Atomic configuration                                                         
    8 entries                                                                   
     n  l   j            E        occ.                                          
     1  0  0.50     -4865.3608   2.0000                                         
     2  0  0.50      -533.1368   2.0000                                         
     2  1  1.50      -440.5031   6.0000                                         
     3  0  0.50       -59.3186   2.0000                                         
     3  1  1.50       -35.7012   6.0000                                         
     3  2  2.50        -1.9157   3.0000                                         
     4  0  0.50        -3.7291   1.0000                                         
     4  3  2.50        -1.3606   0.0000                                         
   Description                                                                  
     l       E           TYP  RCUT    TYP  RCUT                                 
     1    -35.7012140     23  2.300                                             
     1     -1.3605826     23  2.300                                             
     2     -1.9156996     23  2.500                                             
     2     -0.4063033     23  2.500                                             
     0     -3.7290856     23  2.500                                             
     0     20.4087390     23  2.500                                             
  local pseudopotential read in
  partial core-charges read in
  partial kinetic energy density read in
  atomic valenz-charges read in
  non local Contribution for L=           1  read in
    real space projection operators read in
  non local Contribution for L=           1  read in
    real space projection operators read in
  non local Contribution for L=           2  read in
    real space projection operators read in
  non local Contribution for L=           2  read in
    real space projection operators read in
  non local Contribution for L=           0  read in
    real space projection operators read in
  non local Contribution for L=           0  read in
    real space projection operators read in
    PAW grid and wavefunctions read in
 
   number of l-projection  operators is LMAX  =           6
   number of lm-projection operators is LMMAX =          18
 
 POTCAR:    PAW_PBE Ca_pv 06Sep2000               
   VRHFIN =Ca: p6s2d0.01                                                        
   LEXCH  = PE                                                                  
   EATOM  =   612.6676 eV,   45.0298 Ry                                         
                                                                                
   TITEL  = PAW_PBE Ca_pv 06Sep2000                                             
   LULTRA =        F    use ultrasoft PP ?                                      
   IUNSCR =        1    unscreen: 0-lin 1-nonlin 2-no                           
   RPACOR =    2.300    partial core radius                                     
   POMASS =   40.078; ZVAL   =    8.000    mass and valenz                      
   RCORE  =    3.000    outmost cutoff radius                                   
   RWIGS  =    3.300; RWIGS  =    1.746    wigner-seitz radius (au A)           
   ENMAX  =  119.559; ENMIN  =   89.670 eV                                      
   RCLOC  =    1.709    cutoff for local pot                                    
   LCOR   =        T    correct aug charges                                     
   LPAW   =        T    paw PP                                                  
   EAUG   =  325.799                                                            
   DEXC   =    0.000                                                            
   RMAX   =    3.072    core radius for proj-oper                               
   RAUG   =    1.300    factor for augmentation sphere                          
   RDEP   =    3.090    radius for radial grids                                 
   RDEPT  =    2.377    core radius for aug-charge                              
                                                                                
   Atomic configuration                                                         
    7 entries                                                                   
     n  l   j            E        occ.                                          
     1  0  0.50     -3949.1705   2.0000                                         
     2  0  0.50      -414.3434   2.0000                                         
     2  1  1.50      -334.7047   6.0000                                         
     3  0  0.50       -47.0896   2.0000                                         
     3  1  1.50       -28.0061   6.0000                                         
     4  0  0.50        -3.7663   2.0000                                         
     3  2  1.50        -4.0817   0.0000                                         
   Description                                                                  
     l       E           TYP  RCUT    TYP  RCUT                                 
     1    -28.0060855     23  3.000                                             
     1      1.3605826     23  3.000                                             
     0     -3.7663320     23  3.000                                             
     0      4.1207953     23  3.000                                             
     2     -4.0817478     23  3.000                                             
     2     -0.8716232     23  3.000                                             
  local pseudopotential read in
  partial core-charges read in
  partial kinetic energy density read in
  atomic valenz-charges read in
  non local Contribution for L=           1  read in
    real space projection operators read in
  non local Contribution for L=           1  read in
    real space projection operators read in
  non local Contribution for L=           0  read in
    real space projection operators read in
  non local Contribution for L=           0  read in
    real space projection operators read in
  non local Contribution for L=           2  read in
    real space projection operators read in
  non local Contribution for L=           2  read in
    real space projection operators read in
    PAW grid and wavefunctions read in
 
   number of l-projection  operators is LMAX  =           6
   number of lm-projection operators is LMMAX =          18
 
 POTCAR:    PAW_PBE O 08Apr2002                   
   VRHFIN =O: s2p4                                                              
   LEXCH  = PE                                                                  
   EATOM  =   432.3788 eV,   31.7789 Ry                                         
                                                                                
   TITEL  = PAW_PBE O 08Apr2002                                                 
   LULTRA =        F    use ultrasoft PP ?                                      
   IUNSCR =        1    unscreen: 0-lin 1-nonlin 2-no                           
   RPACOR =    1.200    partial core radius                                     
   POMASS =   16.000; ZVAL   =    6.000    mass and valenz                      
   RCORE  =    1.520    outmost cutoff radius                                   
   RWIGS  =    1.550; RWIGS  =    0.820    wigner-seitz radius (au A)           
   ENMAX  =  400.000; ENMIN  =  300.000 eV                                      
   ICORE  =        2    local potential                                         
   LCOR   =        T    correct aug charges                                     
   LPAW   =        T    paw PP                                                  
   EAUG   =  605.392                                                            
   DEXC   =    0.000                                                            
   RMAX   =    1.553    core radius for proj-oper                               
   RAUG   =    1.300    factor for augmentation sphere                          
   RDEP   =    1.550    radius for radial grids                                 
   RDEPT  =    1.329    core radius for aug-charge                              
                                                                                
   Atomic configuration                                                         
    4 entries                                                                   
     n  l   j            E        occ.                                          
     1  0  0.50      -514.6923   2.0000                                         
     2  0  0.50       -23.9615   2.0000                                         
     2  1  0.50        -9.0305   4.0000                                         
     3  2  1.50        -9.5241   0.0000                                         
   Description                                                                  
     l       E           TYP  RCUT    TYP  RCUT                                 
     0    -23.9615318     23  1.200                                             
     0     -9.5240782     23  1.200                                             
     1     -9.0304911     23  1.520                                             
     1      8.1634956     23  1.520                                             
     2     -9.5240782      7  1.500                                             
  local pseudopotential read in
  partial core-charges read in
  partial kinetic energy density read in
  kinetic energy density of atom read in
  atomic valenz-charges read in
  non local Contribution for L=           0  read in
    real space projection operators read in
  non local Contribution for L=           0  read in
    real space projection operators read in
  non local Contribution for L=           1  read in
    real space projection operators read in
  non local Contribution for L=           1  read in
    real space projection operators read in
    PAW grid and wavefunctions read in
 
   number of l-projection  operators is LMAX  =           4
   number of lm-projection operators is LMMAX =           8
 
  PAW_PBE Ti_pv 07Sep2000               :
 energy of atom  1       EATOM=-1042.5995
 kinetic energy error for atom=    0.0037 (will be added to EATOM!!)
  PAW_PBE Ca_pv 06Sep2000               :
 energy of atom  2       EATOM= -612.6676
 kinetic energy error for atom=    0.0002 (will be added to EATOM!!)
  PAW_PBE O 08Apr2002                   :
 energy of atom  3       EATOM= -432.3788
 kinetic energy error for atom=    0.1156 (will be added to EATOM!!)
 
 
 POSCAR: CaTiO3                                  
  positions in direct lattice
  velocities in cartesian coordinates
  No initial velocities read in
 exchange correlation table for  LEXCH =        8
   RHO(1)=    0.500       N(1)  =     2000
   RHO(2)=  100.500       N(2)  =     4000

 VTST: version 3.1, (03/28/14)

 CHAIN: initializing optimizer
 
 OPT: Using VASP Conjugate-Gradient optimizer
 CHAIN: Read ICHAIN            0
 
 POSCAR: CaTiO3                                  
  positions in direct lattice
  velocities in cartesian coordinates
  No initial velocities read in
 


--------------------------------------------------------------------------------------------------------


 ion  position               nearest neighbor table
   1  0.010  0.020  0.030-   5 1.83   4 1.87   3 1.91   3 1.98   4 2.02   5 2.06   2 3.23   2 3.27
                             2 3.32   2 3.37   2 3.37   2 3.41   2 3.45   2 3.50
   2  0.500  0.500  0.500-   3 2.75   4 2.75   5 2.75   3 2.75   4 2.75   3 2.75   5 2.75   3 2.75
                             4 2.75   5 2.75   4 2.75   5 2.75   1 3.23   1 3.27   1 3.32   1 3.37
   3  0.500  0.000  0.000-   1 1.91   1 1.98   2 2.75   2 2.75   2 2.75   2 2.75
   4  0.000  0.500  0.000-   1 1.87   1 2.02   2 2.75   2 2.75   2 2.75   2 2.75
   5  0.000  0.000  0.500-   1 1.83   1 2.06   2 2.75   2 2.75   2 2.75   2 2.75
 
  LATTYP: Found a simple cubic cell.
 ALAT       =     3.8822000000
  
  Lattice vectors:
  
 A1 = (   3.8822000000,   0.0000000000,   0.0000000000)
 A2 = (   0.0000000000,   3.8822000000,   0.0000000000)
 A3 = (   0.0000000000,   0.0000000000,   3.8822000000)


Analysis of symmetry for initial positions (statically):
=====================================================================
 Subroutine PRICEL returns:
 Original cell was already a primitive cell.
 

 Routine SETGRP: Setting up the symmetry group for a 
 simple cubic supercell.


 Subroutine GETGRP returns: Found  1 space group operations
 (whereof  1 operations were pure point group operations)
 out of a pool of 48 trial point group operations.


The static configuration has the point symmetry C_1 .


Analysis of symmetry for dynamics (positions and initial velocities):
=====================================================================
 Subroutine PRICEL returns:
 Original cell was already a primitive cell.
 

 Routine SETGRP: Setting up the symmetry group for a 
 simple cubic supercell.


 Subroutine GETGRP returns: Found  1 space group operations
 (whereof  1 operations were pure point group operations)
 out of a pool of 48 trial point group operations.


The dynamic configuration has the point symmetry C_1 .
 
 
 KPOINTS: k-points                                

Automatic generation of k-mesh.
Space group operators:
 irot       det(A)        alpha          n_x          n_y          n_z        tau_x        tau_y        tau_z
    1     1.000000     0.000000     1.000000     0.000000     0.000000     0.000000     0.000000     0.000000
 
 Subroutine IBZKPT returns following result:
 ===========================================
 
 Found     63 irreducible k-points:
 
 Following reciprocal coordinates:
            Coordinates               Weight
  0.000000  0.000000  0.000000      1.000000
  0.200000  0.000000  0.000000      2.000000
  0.400000  0.000000  0.000000      2.000000
  0.000000  0.200000  0.000000      2.000000
  0.200000  0.200000  0.000000      2.000000
  0.400000  0.200000  0.000000      2.000000
 -0.400000  0.200000  0.000000      2.000000
 -0.200000  0.200000  0.000000      2.000000
  0.000000  0.400000  0.000000      2.000000
  0.200000  0.400000  0.000000      2.000000
  0.400000  0.400000  0.000000      2.000000
 -0.400000  0.400000  0.000000      2.000000
 -0.200000  0.400000  0.000000      2.000000
  0.000000  0.000000  0.200000      2.000000
  0.200000  0.000000  0.200000      2.000000
  0.400000  0.000000  0.200000      2.000000
 -0.400000  0.000000  0.200000      2.000000
 -0.200000  0.000000  0.200000      2.000000
  0.000000  0.200000  0.200000      2.000000
  0.200000  0.200000  0.200000      2.000000
  0.400000  0.200000  0.200000      2.000000
 -0.400000  0.200000  0.200000      2.000000
 -0.200000  0.200000  0.200000      2.000000
  0.000000  0.400000  0.200000      2.000000
  0.200000  0.400000  0.200000      2.000000
  0.400000  0.400000  0.200000      2.000000
 -0.400000  0.400000  0.200000      2.000000
 -0.200000  0.400000  0.200000      2.000000
  0.000000 -0.400000  0.200000      2.000000
  0.200000 -0.400000  0.200000      2.000000
  0.400000 -0.400000  0.200000      2.000000
 -0.400000 -0.400000  0.200000      2.000000
 -0.200000 -0.400000  0.200000      2.000000
  0.000000 -0.200000  0.200000      2.000000
  0.200000 -0.200000  0.200000      2.000000
  0.400000 -0.200000  0.200000      2.000000
 -0.400000 -0.200000  0.200000      2.000000
 -0.200000 -0.200000  0.200000      2.000000
  0.000000  0.000000  0.400000      2.000000
  0.200000  0.000000  0.400000      2.000000
  0.400000  0.000000  0.400000      2.000000
 -0.400000  0.000000  0.400000      2.000000
 -0.200000  0.000000  0.400000      2.000000
  0.000000  0.200000  0.400000      2.000000
  0.200000  0.200000  0.400000      2.000000
  0.400000  0.200000  0.400000      2.000000
 -0.400000  0.200000  0.400000      2.000000
 -0.200000  0.200000  0.400000      2.000000
  0.000000  0.400000  0.400000      2.000000
  0.200000  0.400000  0.400000      2.000000
  0.400000  0.400000  0.400000      2.000000
 -0.400000  0.400000  0.400000      2.000000
 -0.200000  0.400000  0.400000      2.000000
  0.000000 -0.400000  0.400000      2.000000
  0.200000 -0.400000  0.400000      2.000000
  0.400000 -0.400000  0.400000      2.000000
 -0.400000 -0.400000  0.400000      2.000000
 -0.200000 -0.400000  0.400000      2.000000
  0.000000 -0.200000  0.400000      2.000000
  0.200000 -0.200000  0.400000      2.000000
  0.400000 -0.200000  0.400000      2.000000
 -0.400000 -0.200000  0.400000      2.000000
 -0.200000 -0.200000  0.400000      2.000000
 
 Following cartesian coordinates:
            Coordinates               Weight
  0.000000  0.000000  0.000000      1.000000
  0.200000  0.000000  0.000000      2.000000
  0.400000  0.000000  0.000000      2.000000
  0.000000  0.200000  0.000000      2.000000
  0.200000  0.200000  0.000000      2.000000
  0.400000  0.200000  0.000000      2.000000
 -0.400000  0.200000  0.000000      2.000000
 -0.200000  0.200000  0.000000      2.000000
  0.000000  0.400000  0.000000      2.000000
  0.200000  0.400000  0.000000      2.000000
  0.400000  0.400000  0.000000      2.000000
 -0.400000  0.400000  0.000000      2.000000
 -0.200000  0.400000  0.000000      2.000000
  0.000000  0.000000  0.200000      2.000000
  0.200000  0.000000  0.200000      2.000000
  0.400000  0.000000  0.200000      2.000000
 -0.400000  0.000000  0.200000      2.000000
 -0.200000  0.000000  0.200000      2.000000
  0.000000  0.200000  0.200000      2.000000
  0.200000  0.200000  0.200000      2.000000
  0.400000  0.200000  0.200000      2.000000
 -0.400000  0.200000  0.200000      2.000000
 -0.200000  0.200000  0.200000      2.000000
  0.000000  0.400000  0.200000      2.000000
  0.200000  0.400000  0.200000      2.000000
  0.400000  0.400000  0.200000      2.000000
 -0.400000  0.400000  0.200000      2.000000
 -0.200000  0.400000  0.200000      2.000000
  0.000000 -0.400000  0.200000      2.000000
  0.200000 -0.400000  0.200000      2.000000
  0.400000 -0.400000  0.200000      2.000000
 -0.400000 -0.400000  0.200000      2.000000
 -0.200000 -0.400000  0.200000      2.000000
  0.000000 -0.200000  0.200000      2.000000
  0.200000 -0.200000  0.200000      2.000000
  0.400000 -0.200000  0.200000      2.000000
 -0.400000 -0.200000  0.200000      2.000000
 -0.200000 -0.200000  0.200000      2.000000
  0.000000  0.000000  0.400000      2.000000
  0.200000  0.000000  0.400000      2.000000
  0.400000  0.000000  0.400000      2.000000
 -0.400000  0.000000  0.400000      2.000000
 -0.200000  0.000000  0.400000      2.000000
  0.000000  0.200000  0.400000      2.000000
  0.200000  0.200000  0.400000      2.000000
  0.400000  0.200000  0.400000      2.000000
 -0.400000  0.200000  0.400000      2.000000
 -0.200000  0.200000  0.400000      2.000000
  0.000000  0.400000  0.400000      2.000000
  0.200000  0.400000  0.400000      2.000000
  0.400000  0.400000  0.400000      2.000000
 -0.400000  0.400000  0.400000      2.000000
 -0.200000  0.400000  0.400000      2.000000
  0.000000 -0.400000  0.400000      2.000000
  0.200000 -0.400000  0.400000      2.000000
  0.400000 -0.400000  0.400000      2.000000
 -0.400000 -0.400000  0.400000      2.000000
 -0.200000 -0.400000  0.400000      2.000000
  0.000000 -0.200000  0.400000      2.000000
  0.200000 -0.200000  0.400000      2.000000
  0.400000 -0.200000  0.400000      2.000000
 -0.400000 -0.200000  0.400000      2.000000
 -0.200000 -0.200000  0.400000      2.000000
 


--------------------------------------------------------------------------------------------------------




 Dimension of arrays:
   k-points           NKPTS =     63   k-points in BZ     NKDIM =     63   number of bands    NBANDS=     22
   number of dos      NEDOS =    301   number of ions     NIONS =      5
   non local maximal  LDIM  =      6   non local SUM 2l+1 LMDIM =     18
   total plane-waves  NPLWV =   8000
   max r-space proj   IRMAX =      1   max aug-charges    IRDMAX=   9776
   dimension x,y,z NGX =    20 NGY =   20 NGZ =   20
   dimension x,y,z NGXF=    40 NGYF=   40 NGZF=   40
   support grid    NGXF=    40 NGYF=   40 NGZF=   40
   ions per type =               1   1   3
 NGX,Y,Z   is equivalent  to a cutoff of   8.56,  8.56,  8.56 a.u.
 NGXF,Y,Z  is equivalent  to a cutoff of  17.13, 17.13, 17.13 a.u.


 I would recommend the setting:
   dimension x,y,z NGX =    19 NGY =   19 NGZ =   19
 SYSTEM =  unknown system                          
 POSCAR =  CaTiO3                                  

 Startparameter for this run:
   NWRITE =      2    write-flag & timer
   PREC   = normal    normal or accurate (medium, high low for compatibility)
   ISTART =      0    job   : 0-new  1-cont  2-samecut
   ICHARG =      2    charge: 1-file 2-atom 10-const
   ISPIN  =      1    spin polarized calculation?
   LNONCOLLINEAR =      F non collinear calculations
   LSORBIT =      F    spin-orbit coupling
   INIWAV =      1    electr: 0-lowe 1-rand  2-diag
   LASPH  =      F    aspherical Exc in radial PAW
   METAGGA=      F    non-selfconsistent MetaGGA calc.

 Electronic Relaxation 1
   ENCUT  =  400.0 eV  29.40 Ry    5.42 a.u.   6.33  6.33  6.33*2*pi/ulx,y,z
   ENINI  =  400.0     initial cutoff
   ENAUG  =  605.4 eV  augmentation charge cutoff
   NELM   =     60;   NELMIN=  2; NELMDL= -5     # of ELM steps 
   EDIFF  = 0.1E-03   stopping-criterion for ELM
   LREAL  =      F    real-space projection
   NLSPLINE    = F    spline interpolate recip. space projectors
   LCOMPAT=      F    compatible to vasp.4.4
   GGA_COMPAT  = T    GGA compatible to vasp.4.4-vasp.4.6
   LMAXPAW     = -100 max onsite density
   LMAXMIX     =    2 max onsite mixed and CHGCAR
   VOSKOWN=      0    Vosko Wilk Nusair interpolation
   ROPT   =    0.00000   0.00000   0.00000
 Ionic relaxation
   EDIFFG = 0.1E-02   stopping-criterion for IOM
   NSW    =   1024    number of steps for IOM
   NBLOCK =      1;   KBLOCK =   1024    inner block; outer block 
   IBRION =      2    ionic relax: 0-MD 1-quasi-New 2-CG
   NFREE  =      1    steps in history (QN), initial steepest desc. (CG)
   ISIF   =      2    stress and relaxation
   IWAVPR =     11    prediction:  0-non 1-charg 2-wave 3-comb
   ISYM   =      2    0-nonsym 1-usesym 2-fastsym
   LCORR  =      T    Harris-Foulkes like correction to forces

   POTIM  = 0.5000    time-step for ionic-motion
   TEIN   =    0.0    initial temperature
   TEBEG  =    0.0;   TEEND  =   0.0 temperature during run
   SMASS  =  -3.00    Nose mass-parameter (am)
   estimated Nose-frequenzy (Omega)   =  0.10E-29 period in steps =****** mass=  -0.344E-27a.u.
   SCALEE = 1.0000    scale energy and forces
   NPACO  =    256;   APACO  = 16.0  distance and # of slots for P.C.
   PSTRESS=    0.0 pullay stress

  Mass of Ions in am
   POMASS =  47.88 40.08 16.00
  Ionic Valenz
   ZVAL   =  10.00  8.00  6.00
  Atomic Wigner-Seitz radii
   RWIGS  =  -1.00 -1.00 -1.00
  virtual crystal weights 
   VCA    =   1.00  1.00  1.00
   NELECT =      36.0000    total number of electrons
   NUPDOWN=      -1.0000    fix difference up-down

 DOS related values:
   EMIN   =  10.00;   EMAX   =-10.00  energy-range for DOS
   EFERMI =   0.00
   ISMEAR =     1;   SIGMA  =   0.20  broadening in eV -4-tet -1-fermi 0-gaus

 Electronic relaxation 2 (details)
   IALGO  =     38    algorithm
   LDIAG  =      T    sub-space diagonalisation (order eigenvalues)
   LSUBROT=      F    optimize rotation matrix (better conditioning)
   TURBO    =      0    0=normal 1=particle mesh
   IRESTART =      0    0=no restart 2=restart with 2 vectors
   NREBOOT  =      0    no. of reboots
   NMIN     =      0    reboot dimension
   EREF     =   0.00    reference energy to select bands
   IMIX   =      4    mixing-type and parameters
     AMIX     =   0.40;   BMIX     =  1.00
     AMIX_MAG =   1.60;   BMIX_MAG =  1.00
     AMIN     =   0.10
     WC   =   100.;   INIMIX=   1;  MIXPRE=   1;  MAXMIX= -45

 Intra band minimization:
   WEIMIN = 0.0010     energy-eigenvalue tresh-hold
   EBREAK =  0.11E-05  absolut break condition
   DEPER  =   0.30     relativ break condition  

   TIME   =   0.40     timestep for ELM

  volume/ion in A,a.u.               =      11.70        78.97
  Fermi-wavevector in a.u.,A,eV,Ry     =   1.392401  2.631257 26.378723  1.938781
  Thomas-Fermi vector in A             =   2.516148
 
 Write flags
   LWAVE  =      T    write WAVECAR
   LCHARG =      T    write CHGCAR
   LVTOT  =      F    write LOCPOT, total local potential
   LVHAR  =      F    write LOCPOT, Hartree potential only
   LELF   =      F    write electronic localiz. function (ELF)
   LORBIT =      0    0 simple, 1 ext, 2 COOP (PROOUT)


 Dipole corrections
   LMONO  =      F    monopole corrections only (constant potential shift)
   LDIPOL =      F    correct potential (dipole corrections)
   IDIPOL =      0    1-x, 2-y, 3-z, 4-all directions 
   EPSILON=  1.0000000 bulk dielectric constant

 Exchange correlation treatment:
   GGA     =    --    GGA type
   LEXCH   =     8    internal setting for exchange type
   VOSKOWN=      0    Vosko Wilk Nusair interpolation
   LHFCALC =     F    Hartree Fock is set to
   LHFONE  =     F    Hartree Fock one center treatment
   AEXX    =    0.0000 exact exchange contribution

 Linear response parameters
   LEPSILON=     F    determine dielectric tensor
   LRPA    =     F    only Hartree local field effects (RPA)
   LNABLA  =     F    use nabla operator in PAW spheres
   LVEL    =     F    velocity operator in full k-point grid
   LINTERFAST=   F  fast interpolation
   KINTER  =     0    interpolate to denser k-point grid
   CSHIFT  =0.1000    complex shift for real part using Kramers Kronig
   OMEGAMAX=  -1.0    maximum frequency
   DEG_THRESHOLD= 0.2000000E-02 threshold for treating states as degnerate
   RTIME   =    0.100 relaxation time in fs

 Orbital magnetization related:
   ORBITALMAG=     F  switch on orbital magnetization
   LCHIMAG   =     F  perturbation theory with respect to B field
   DQ        =  0.001000  dq finite difference perturbation B field



--------------------------------------------------------------------------------------------------------


 conjugate gradient relaxation of ions
 charge density and potential will be updated during run
 non-spin polarized calculation
 Variant of blocked Davidson
 Davidson routine will perform the subspace rotation
 perform sub-space diagonalisation
    after iterative eigenvector-optimisation
 modified Broyden-mixing scheme, WC =      100.0
 initial mixing is a Kerker type mixing with AMIX =  0.4000 and BMIX =      1.0000
 Hartree-type preconditioning will be used
 using additional bands            4
 reciprocal scheme for non local part
 use partial core corrections
 calculate Harris-corrections to forces 
   (improved forces if not selfconsistent)
 use gradient corrections 
 use of overlap-Matrix (Vanderbilt PP)
 Methfessel and Paxton  Order N= 1 SIGMA  =   0.20


--------------------------------------------------------------------------------------------------------


  energy-cutoff  :      400.00
  volume of cell :       58.51
      direct lattice vectors                 reciprocal lattice vectors
     3.882200000  0.000000000  0.000000000     0.257585905  0.000000000  0.000000000
     0.000000000  3.882200000  0.000000000     0.000000000  0.257585905  0.000000000
     0.000000000  0.000000000  3.882200000     0.000000000  0.000000000  0.257585905

  length of vectors
     3.882200000  3.882200000  3.882200000     0.257585905  0.257585905  0.257585905


 
 k-points in units of 2pi/SCALE and weight: k-points                                
   0.00000000  0.00000000  0.00000000       0.008
   0.20000000  0.00000000  0.00000000       0.016
   0.40000000  0.00000000  0.00000000       0.016
   0.00000000  0.20000000  0.00000000       0.016
   0.20000000  0.20000000  0.00000000       0.016
   0.40000000  0.20000000  0.00000000       0.016
  -0.40000000  0.20000000  0.00000000       0.016
  -0.20000000  0.20000000  0.00000000       0.016
   0.00000000  0.40000000  0.00000000       0.016
   0.20000000  0.40000000  0.00000000       0.016
   0.40000000  0.40000000  0.00000000       0.016
  -0.40000000  0.40000000  0.00000000       0.016
  -0.20000000  0.40000000  0.00000000       0.016
   0.00000000  0.00000000  0.20000000       0.016
   0.20000000  0.00000000  0.20000000       0.016
   0.40000000  0.00000000  0.20000000       0.016
  -0.40000000  0.00000000  0.20000000       0.016
  -0.20000000  0.00000000  0.20000000       0.016
   0.00000000  0.20000000  0.20000000       0.016
   0.20000000  0.20000000  0.20000000       0.016
   0.40000000  0.20000000  0.20000000       0.016
  -0.40000000  0.20000000  0.20000000       0.016
  -0.20000000  0.20000000  0.20000000       0.016
   0.00000000  0.40000000  0.20000000       0.016
   0.20000000  0.40000000  0.20000000       0.016
   0.40000000  0.40000000  0.20000000       0.016
  -0.40000000  0.40000000  0.20000000       0.016
  -0.20000000  0.40000000  0.20000000       0.016
   0.00000000 -0.40000000  0.20000000       0.016
   0.20000000 -0.40000000  0.20000000       0.016
   0.40000000 -0.40000000  0.20000000       0.016
  -0.40000000 -0.40000000  0.20000000       0.016
  -0.20000000 -0.40000000  0.20000000       0.016
   0.00000000 -0.20000000  0.20000000       0.016
   0.20000000 -0.20000000  0.20000000       0.016
   0.40000000 -0.20000000  0.20000000       0.016
  -0.40000000 -0.20000000  0.20000000       0.016
  -0.20000000 -0.20000000  0.20000000       0.016
   0.00000000  0.00000000  0.40000000       0.016
   0.20000000  0.00000000  0.40000000       0.016
   0.40000000  0.00000000  0.40000000       0.016
  -0.40000000  0.00000000  0.40000000       0.016
  -0.20000000  0.00000000  0.40000000       0.016
   0.00000000  0.20000000  0.40000000       0.016
   0.20000000  0.20000000  0.40000000       0.016
   0.40000000  0.20000000  0.40000000       0.016
  -0.40000000  0.20000000  0.40000000       0.016
  -0.20000000  0.20000000  0.40000000       0.016
   0.00000000  0.40000000  0.40000000       0.016
   0.20000000  0.40000000  0.40000000       0.016
   0.40000000  0.40000000  0.40000000       0.016
  -0.40000000  0.40000000  0.40000000       0.016
  -0.20000000  0.40000000  0.40000000       0.016
   0.00000000 -0.40000000  0.40000000       0.016
   0.20000000 -0.40000000  0.40000000       0.016
   0.40000000 -0.40000000  0.40000000       0.016
  -0.40000000 -0.40000000  0.40000000       0.016
  -0.20000000 -0.40000000  0.40000000       0.016
   0.00000000 -0.20000000  0.40000000       0.016
   0.20000000 -0.20000000  0.40000000       0.016
   0.40000000 -0.20000000  0.40000000       0.016
  -0.40000000 -0.20000000  0.40000000       0.016
  -0.20000000 -0.20000000  0.40000000       0.016
 
 k-points in reciprocal lattice and weights: k-points                                
   0.00000000  0.00000000  0.00000000       0.008
   0.20000000  0.00000000  0.00000000       0.016
   0.40000000  0.00000000  0.00000000       0.016
   0.00000000  0.20000000  0.00000000       0.016
   0.20000000  0.20000000  0.00000000       0.016
   0.40000000  0.20000000  0.00000000       0.016
  -0.40000000  0.20000000  0.00000000       0.016
  -0.20000000  0.20000000  0.00000000       0.016
   0.00000000  0.40000000  0.00000000       0.016
   0.20000000  0.40000000  0.00000000       0.016
   0.40000000  0.40000000  0.00000000       0.016
  -0.40000000  0.40000000  0.00000000       0.016
  -0.20000000  0.40000000  0.00000000       0.016
   0.00000000  0.00000000  0.20000000       0.016
   0.20000000  0.00000000  0.20000000       0.016
   0.40000000  0.00000000  0.20000000       0.016
  -0.40000000  0.00000000  0.20000000       0.016
  -0.20000000  0.00000000  0.20000000       0.016
   0.00000000  0.20000000  0.20000000       0.016
   0.20000000  0.20000000  0.20000000       0.016
   0.40000000  0.20000000  0.20000000       0.016
  -0.40000000  0.20000000  0.20000000       0.016
  -0.20000000  0.20000000  0.20000000       0.016
   0.00000000  0.40000000  0.20000000       0.016
   0.20000000  0.40000000  0.20000000       0.016
   0.40000000  0.40000000  0.20000000       0.016
  -0.40000000  0.40000000  0.20000000       0.016
  -0.20000000  0.40000000  0.20000000       0.016
   0.00000000 -0.40000000  0.20000000       0.016
   0.20000000 -0.40000000  0.20000000       0.016
   0.40000000 -0.40000000  0.20000000       0.016
  -0.40000000 -0.40000000  0.20000000       0.016
  -0.20000000 -0.40000000  0.20000000       0.016
   0.00000000 -0.20000000  0.20000000       0.016
   0.20000000 -0.20000000  0.20000000       0.016
   0.40000000 -0.20000000  0.20000000       0.016
  -0.40000000 -0.20000000  0.20000000       0.016
  -0.20000000 -0.20000000  0.20000000       0.016
   0.00000000  0.00000000  0.40000000       0.016
   0.20000000  0.00000000  0.40000000       0.016
   0.40000000  0.00000000  0.40000000       0.016
  -0.40000000  0.00000000  0.40000000       0.016
  -0.20000000  0.00000000  0.40000000       0.016
   0.00000000  0.20000000  0.40000000       0.016
   0.20000000  0.20000000  0.40000000       0.016
   0.40000000  0.20000000  0.40000000       0.016
  -0.40000000  0.20000000  0.40000000       0.016
  -0.20000000  0.20000000  0.40000000       0.016
   0.00000000  0.40000000  0.40000000       0.016
   0.20000000  0.40000000  0.40000000       0.016
   0.40000000  0.40000000  0.40000000       0.016
  -0.40000000  0.40000000  0.40000000       0.016
  -0.20000000  0.40000000  0.40000000       0.016
   0.00000000 -0.40000000  0.40000000       0.016
   0.20000000 -0.40000000  0.40000000       0.016
   0.40000000 -0.40000000  0.40000000       0.016
  -0.40000000 -0.40000000  0.40000000       0.016
  -0.20000000 -0.40000000  0.40000000       0.016
   0.00000000 -0.20000000  0.40000000       0.016
   0.20000000 -0.20000000  0.40000000       0.016
   0.40000000 -0.20000000  0.40000000       0.016
  -0.40000000 -0.20000000  0.40000000       0.016
  -0.20000000 -0.20000000  0.40000000       0.016
 
 position of ions in fractional coordinates (direct lattice) 
   0.01000000  0.02000000  0.03000000
   0.50000000  0.50000000  0.50000000
   0.50000000  0.00000000  0.00000000
   0.00000000  0.50000000  0.00000000
   0.00000000  0.00000000  0.50000000
 
 position of ions in cartesian coordinates  (Angst):
   0.03882200  0.07764400  0.11646600
   1.94110000  1.94110000  1.94110000
   1.94110000  0.00000000  0.00000000
   0.00000000  1.94110000  0.00000000
   0.00000000  0.00000000  1.94110000
 


--------------------------------------------------------------------------------------------------------


 k-point  1 :   0.0000 0.0000 0.0000  plane waves:    1045
 k-point  2 :   0.2000 0.0000 0.0000  plane waves:    1069
 k-point  3 :   0.4000 0.0000 0.0000  plane waves:    1064
 k-point  4 :   0.0000 0.2000 0.0000  plane waves:    1069
 k-point  5 :   0.2000 0.2000 0.0000  plane waves:    1073
 k-point  6 :   0.4000 0.2000 0.0000  plane waves:    1072
 k-point  7 :  -0.4000 0.2000 0.0000  plane waves:    1072
 k-point  8 :  -0.2000 0.2000 0.0000  plane waves:    1073
 k-point  9 :   0.0000 0.4000 0.0000  plane waves:    1064
 k-point 10 :   0.2000 0.4000 0.0000  plane waves:    1072
 k-point 11 :   0.4000 0.4000 0.0000  plane waves:    1063
 k-point 12 :  -0.4000 0.4000 0.0000  plane waves:    1063
 k-point 13 :  -0.2000 0.4000 0.0000  plane waves:    1072
 k-point 14 :   0.0000 0.0000 0.2000  plane waves:    1069
 k-point 15 :   0.2000 0.0000 0.2000  plane waves:    1073
 k-point 16 :   0.4000 0.0000 0.2000  plane waves:    1072
 k-point 17 :  -0.4000 0.0000 0.2000  plane waves:    1072
 k-point 18 :  -0.2000 0.0000 0.2000  plane waves:    1073
 k-point 19 :   0.0000 0.2000 0.2000  plane waves:    1073
 k-point 20 :   0.2000 0.2000 0.2000  plane waves:    1066
 k-point 21 :   0.4000 0.2000 0.2000  plane waves:    1068
 k-point 22 :  -0.4000 0.2000 0.2000  plane waves:    1068
 k-point 23 :  -0.2000 0.2000 0.2000  plane waves:    1066
 k-point 24 :   0.0000 0.4000 0.2000  plane waves:    1072
 k-point 25 :   0.2000 0.4000 0.2000  plane waves:    1068
 k-point 26 :   0.4000 0.4000 0.2000  plane waves:    1054
 k-point 27 :  -0.4000 0.4000 0.2000  plane waves:    1054
 k-point 28 :  -0.2000 0.4000 0.2000  plane waves:    1068
 k-point 29 :   0.0000-0.4000 0.2000  plane waves:    1072
 k-point 30 :   0.2000-0.4000 0.2000  plane waves:    1068
 k-point 31 :   0.4000-0.4000 0.2000  plane waves:    1054
 k-point 32 :  -0.4000-0.4000 0.2000  plane waves:    1054
 k-point 33 :  -0.2000-0.4000 0.2000  plane waves:    1068
 k-point 34 :   0.0000-0.2000 0.2000  plane waves:    1073
 k-point 35 :   0.2000-0.2000 0.2000  plane waves:    1066
 k-point 36 :   0.4000-0.2000 0.2000  plane waves:    1068
 k-point 37 :  -0.4000-0.2000 0.2000  plane waves:    1068
 k-point 38 :  -0.2000-0.2000 0.2000  plane waves:    1066
 k-point 39 :   0.0000 0.0000 0.4000  plane waves:    1064
 k-point 40 :   0.2000 0.0000 0.4000  plane waves:    1072
 k-point 41 :   0.4000 0.0000 0.4000  plane waves:    1063
 k-point 42 :  -0.4000 0.0000 0.4000  plane waves:    1063
 k-point 43 :  -0.2000 0.0000 0.4000  plane waves:    1072
 k-point 44 :   0.0000 0.2000 0.4000  plane waves:    1072
 k-point 45 :   0.2000 0.2000 0.4000  plane waves:    1068
 k-point 46 :   0.4000 0.2000 0.4000  plane waves:    1054
 k-point 47 :  -0.4000 0.2000 0.4000  plane waves:    1054
 k-point 48 :  -0.2000 0.2000 0.4000  plane waves:    1068
 k-point 49 :   0.0000 0.4000 0.4000  plane waves:    1063
 k-point 50 :   0.2000 0.4000 0.4000  plane waves:    1054
 k-point 51 :   0.4000 0.4000 0.4000  plane waves:    1058
 k-point 52 :  -0.4000 0.4000 0.4000  plane waves:    1058
 k-point 53 :  -0.2000 0.4000 0.4000  plane waves:    1054
 k-point 54 :   0.0000-0.4000 0.4000  plane waves:    1063
 k-point 55 :   0.2000-0.4000 0.4000  plane waves:    1054
 k-point 56 :   0.4000-0.4000 0.4000  plane waves:    1058
 k-point 57 :  -0.4000-0.4000 0.4000  plane waves:    1058
 k-point 58 :  -0.2000-0.4000 0.4000  plane waves:    1054
 k-point 59 :   0.0000-0.2000 0.4000  plane waves:    1072
 k-point 60 :   0.2000-0.2000 0.4000  plane waves:    1068
 k-point 61 :   0.4000-0.2000 0.4000  plane waves:    1054
 k-point 62 :  -0.4000-0.2000 0.4000  plane waves:    1054
 k-point 63 :  -0.2000-0.2000 0.4000  plane waves:    1068

 maximum and minimum number of plane-waves per node :      1073     1045

 maximum number of plane-waves:      1073
 maximum index in each direction: 
   IXMAX=    6   IYMAX=    6   IZMAX=    6
   IXMIN=   -6   IYMIN=   -6   IZMIN=   -6

 WARNING: aliasing errors must be expected set NGX to  26 to avoid them
 WARNING: aliasing errors must be expected set NGY to  26 to avoid them
 WARNING: aliasing errors must be expected set NGZ to  26 to avoid them
 aliasing errors are usually negligible using standard VASP settings
 and one can safely disregard these warnings

 serial   3D FFT for wavefunctions
 parallel 3D FFT for charge:
    minimum data exchange during FFTs selected (reduces bandwidth)


 total amount of memory used by VASP on root node    61338. kBytes
========================================================================

   base      :      30000. kBytes
   nonl-proj :      29425. kBytes
   fftplans  :        145. kBytes
   grid      :        538. kBytes
   one-center:         77. kBytes
   wavefun   :       1153. kBytes
 
     INWAV:  cpu time    0.00: real time    0.00
 Broyden mixing: mesh for mixing (old mesh)
   NGX = 13   NGY = 13   NGZ = 13
  (NGX  = 40   NGY  = 40   NGZ  = 40)
  gives a total of   2197 points

 initial charge density was supplied:
 charge density of overlapping atoms calculated
 number of electron      36.0000000 magnetization 
 keeping initial charge density in first step


--------------------------------------------------------------------------------------------------------


 Maximum index for augmentation-charges          517 (set IRDMAX)


--------------------------------------------------------------------------------------------------------


 First call to EWALD:  gamma=   0.457
 Maximum number of real-space cells 3x 3x 3
 Maximum number of reciprocal cells 3x 3x 3

 FEWALD executed in parallel
    FEWALD:  cpu time    0.00: real time    0.00


----------------------------------------- Iteration    1(   1)  ---------------------------------------


    POTLOK:  cpu time    0.00: real time    0.00
    SETDIJ:  cpu time    0.00: real time    0.00
     EDDAV:  cpu time    0.40: real time    0.40
       DOS:  cpu time    0.00: real time    0.00
    --------------------------------------------
      LOOP:  cpu time    0.41: real time    0.41

 eigenvalue-minimisations  :  2772
 total energy-change (2. order) : 0.2115373E+03  (-0.1629103E+04)
 number of electron      36.0000000 magnetization 
 augmentation part       36.0000000 magnetization 

 Free energy of the ion-electron system (eV)
  ---------------------------------------------------
  alpha Z        PSCENC =       166.69949767
  Ewald energy   TEWEN  =     -2274.95761532
  -Hartree energ DENC   =      -674.46957666
  -exchange      EXHF   =         0.00000000
  -V(xc)+E(xc)   XCENC  =       135.82473810
  PAW double counting   =      2297.08385515    -2300.16057493
  entropy T*S    EENTRO =        -0.00022236
  eigenvalues    EBANDS =       -90.53552131
  atomic energy  EATOM  =      2952.05274943
  ---------------------------------------------------
  free energy    TOTEN  =       211.53732977 eV

  energy without entropy =      211.53755212  energy(sigma->0) =      211.53740388


--------------------------------------------------------------------------------------------------------




----------------------------------------- Iteration    1(   2)  ---------------------------------------


     EDDAV:  cpu time    0.87: real time    0.87
       DOS:  cpu time    0.00: real time    0.00
    --------------------------------------------
      LOOP:  cpu time    0.87: real time    0.87

 eigenvalue-minimisations  :  5302
 total energy-change (2. order) :-0.2545188E+03  (-0.2512569E+03)
 number of electron      36.0000000 magnetization 
 augmentation part       36.0000000 magnetization 

 Free energy of the ion-electron system (eV)
  ---------------------------------------------------
  alpha Z        PSCENC =       166.69949767
  Ewald energy   TEWEN  =     -2274.95761532
  -Hartree energ DENC   =      -674.46957666
  -exchange      EXHF   =         0.00000000
  -V(xc)+E(xc)   XCENC  =       135.82473810
  PAW double counting   =      2297.08385515    -2300.16057493
  entropy T*S    EENTRO =         0.00049086
  eigenvalues    EBANDS =      -345.05499699
  atomic energy  EATOM  =      2952.05274943
  ---------------------------------------------------
  free energy    TOTEN  =       -42.98143270 eV

  energy without entropy =      -42.98192356  energy(sigma->0) =      -42.98159632


--------------------------------------------------------------------------------------------------------




----------------------------------------- Iteration    1(   3)  ---------------------------------------


     EDDAV:  cpu time    0.38: real time    0.38
       DOS:  cpu time    0.00: real time    0.00
    --------------------------------------------
      LOOP:  cpu time    0.38: real time    0.38

 eigenvalue-minimisations  :  2882
 total energy-change (2. order) :-0.6591277E+01  (-0.6323828E+01)
 number of electron      36.0000000 magnetization 
 augmentation part       36.0000000 magnetization 

 Free energy of the ion-electron system (eV)
  ---------------------------------------------------
  alpha Z        PSCENC =       166.69949767
  Ewald energy   TEWEN  =     -2274.95761532
  -Hartree energ DENC   =      -674.46957666
  -exchange      EXHF   =         0.00000000
  -V(xc)+E(xc)   XCENC  =       135.82473810
  PAW double counting   =      2297.08385515    -2300.16057493
  entropy T*S    EENTRO =         0.00779375
  eigenvalues    EBANDS =      -351.65357648
  atomic energy  EATOM  =      2952.05274943
  ---------------------------------------------------
  free energy    TOTEN  =       -49.57270930 eV

  energy without entropy =      -49.58050305  energy(sigma->0) =      -49.57530722


--------------------------------------------------------------------------------------------------------




----------------------------------------- Iteration    1(   4)  ---------------------------------------


     EDDAV:  cpu time    0.86: real time    0.86
       DOS:  cpu time    0.00: real time    0.00
    --------------------------------------------
      LOOP:  cpu time    0.86: real time    0.86

 eigenvalue-minimisations  :  5302
 total energy-change (2. order) :-0.8663653E-01  (-0.8666025E-01)
 number of electron      36.0000000 magnetization 
 augmentation part       36.0000000 magnetization 

 Free energy of the ion-electron system (eV)
  ---------------------------------------------------
  alpha Z        PSCENC =       166.69949767
  Ewald energy   TEWEN  =     -2274.95761532
  -Hartree energ DENC   =      -674.46957666
  -exchange      EXHF   =         0.00000000
  -V(xc)+E(xc)   XCENC  =       135.82473810
  PAW double counting   =      2297.08385515    -2300.16057493
  entropy T*S    EENTRO =         0.00756944
  eigenvalues    EBANDS =      -351.73998870
  atomic energy  EATOM  =      2952.05274943
  ---------------------------------------------------
  free energy    TOTEN  =       -49.65934583 eV

  energy without entropy =      -49.66691527  energy(sigma->0) =      -49.66186898


--------------------------------------------------------------------------------------------------------




----------------------------------------- Iteration    1(   5)  ---------------------------------------


     EDDAV:  cpu time    0.39: real time    0.39
       DOS:  cpu time    0.00: real time    0.00
    CHARGE:  cpu time    0.01: real time    0.01
    MIXING:  cpu time    0.00: real time    0.00
    --------------------------------------------
      LOOP:  cpu time    0.41: real time    0.41

 eigenvalue-minimisations  :  3036
 total energy-change (2. order) :-0.5199391E-03  (-0.5199375E-03)
 number of electron      36.0000087 magnetization 
 augmentation part       10.9457161 magnetization 

 Broyden mixing:
  rms(total) = 0.32097E+01    rms(broyden)= 0.32094E+01
  rms(prec ) = 0.54131E+01
  weight for this iteration     100.00

 Free energy of the ion-electron system (eV)
  ---------------------------------------------------
  alpha Z        PSCENC =       166.69949767
  Ewald energy   TEWEN  =     -2274.95761532
  -Hartree energ DENC   =      -674.46957666
  -exchange      EXHF   =         0.00000000
  -V(xc)+E(xc)   XCENC  =       135.82473810
  PAW double counting   =      2297.08385515    -2300.16057493
  entropy T*S    EENTRO =         0.00756739
  eigenvalues    EBANDS =      -351.74050659
  atomic energy  EATOM  =      2952.05274943
  ---------------------------------------------------
  free energy    TOTEN  =       -49.65986577 eV

  energy without entropy =      -49.66743316  energy(sigma->0) =      -49.66238823


--------------------------------------------------------------------------------------------------------




----------------------------------------- Iteration    1(   6)  ---------------------------------------


    POTLOK:  cpu time    0.00: real time    0.00
    SETDIJ:  cpu time    0.00: real time    0.00
     EDDAV:  cpu time    0.87: real time    0.87
       DOS:  cpu time    0.00: real time    0.00
    CHARGE:  cpu time    0.03: real time    0.03
    MIXING:  cpu time    0.00: real time    0.00
    --------------------------------------------
      LOOP:  cpu time    0.91: real time    0.91

 eigenvalue-minimisations  :  5280
 total energy-change (2. order) : 0.9050919E+01  (-0.8131663E+01)
 number of electron      36.0000066 magnetization 
 augmentation part       11.1521203 magnetization 

 Broyden mixing:
  rms(total) = 0.10620E+01    rms(broyden)= 0.10612E+01
  rms(prec ) = 0.16517E+01
  weight for this iteration     100.00

 eigenvalues of (default mixing * dielectric matrix)
  average eigenvalue GAMMA=   0.9973
  0.9973

 Free energy of the ion-electron system (eV)
  ---------------------------------------------------
  alpha Z        PSCENC =       166.69949767
  Ewald energy   TEWEN  =     -2274.95761532
  -Hartree energ DENC   =      -695.14153634
  -exchange      EXHF   =         0.00000000
  -V(xc)+E(xc)   XCENC  =       138.35847732
  PAW double counting   =      2801.93460641    -2807.75821952
  entropy T*S    EENTRO =         0.00709683
  eigenvalues    EBANDS =      -321.80400331
  atomic energy  EATOM  =      2952.05274943
  ---------------------------------------------------
  free energy    TOTEN  =       -40.60894682 eV

  energy without entropy =      -40.61604366  energy(sigma->0) =      -40.61131243


--------------------------------------------------------------------------------------------------------




----------------------------------------- Iteration    1(   7)  ---------------------------------------


    POTLOK:  cpu time    0.00: real time    0.00
    SETDIJ:  cpu time    0.00: real time    0.00
     EDDAV:  cpu time    0.46: real time    0.46
       DOS:  cpu time    0.00: real time    0.00
    CHARGE:  cpu time    0.01: real time    0.01
    MIXING:  cpu time    0.00: real time    0.00
    --------------------------------------------
      LOOP:  cpu time    0.48: real time    0.48

 eigenvalue-minimisations  :  3454
 total energy-change (2. order) : 0.4659296E+00  (-0.7659897E+00)
 number of electron      36.0000072 magnetization 
 augmentation part       11.0343285 magnetization 

 Broyden mixing:
  rms(total) = 0.85900E+00    rms(broyden)= 0.85898E+00
  rms(prec ) = 0.10702E+01
  weight for this iteration     100.00

 eigenvalues of (default mixing * dielectric matrix)
  average eigenvalue GAMMA=   1.7484
  0.7314  2.7653

 Free energy of the ion-electron system (eV)
  ---------------------------------------------------
  alpha Z        PSCENC =       166.69949767
  Ewald energy   TEWEN  =     -2274.95761532
  -Hartree energ DENC   =      -687.24341754
  -exchange      EXHF   =         0.00000000
  -V(xc)+E(xc)   XCENC  =       137.60396024
  PAW double counting   =      3042.88207303    -3048.57688439
  entropy T*S    EENTRO =         0.00678003
  eigenvalues    EBANDS =      -328.61016042
  atomic energy  EATOM  =      2952.05274943
  ---------------------------------------------------
  free energy    TOTEN  =       -40.14301727 eV

  energy without entropy =      -40.14979730  energy(sigma->0) =      -40.14527728


--------------------------------------------------------------------------------------------------------




----------------------------------------- Iteration    1(   8)  ---------------------------------------


    POTLOK:  cpu time    0.00: real time    0.00
    SETDIJ:  cpu time    0.00: real time    0.00
     EDDAV:  cpu time    0.69: real time    0.69
       DOS:  cpu time    0.00: real time    0.00
    CHARGE:  cpu time    0.03: real time    0.03
    MIXING:  cpu time    0.00: real time    0.00
    --------------------------------------------
      LOOP:  cpu time    0.72: real time    0.72

 eigenvalue-minimisations  :  4576
 total energy-change (2. order) :-0.9950934E-01  (-0.4626477E+00)
 number of electron      36.0000068 magnetization 
 augmentation part       11.2592095 magnetization 

 Broyden mixing:
  rms(total) = 0.55682E+00    rms(broyden)= 0.55677E+00
  rms(prec ) = 0.10144E+01
  weight for this iteration     100.00

 eigenvalues of (default mixing * dielectric matrix)
  average eigenvalue GAMMA=   1.2084
  2.3195  0.8202  0.4855

 Free energy of the ion-electron system (eV)
  ---------------------------------------------------
  alpha Z        PSCENC =       166.69949767
  Ewald energy   TEWEN  =     -2274.95761532
  -Hartree energ DENC   =      -681.38134421
  -exchange      EXHF   =         0.00000000
  -V(xc)+E(xc)   XCENC  =       137.55511100
  PAW double counting   =      3668.00503121    -3674.85774815
  entropy T*S    EENTRO =         0.00691590
  eigenvalues    EBANDS =      -333.36512414
  atomic energy  EATOM  =      2952.05274943
  ---------------------------------------------------
  free energy    TOTEN  =       -40.24252661 eV

  energy without entropy =      -40.24944251  energy(sigma->0) =      -40.24483191


--------------------------------------------------------------------------------------------------------




----------------------------------------- Iteration    1(   9)  ---------------------------------------


    POTLOK:  cpu time    0.00: real time    0.00
    SETDIJ:  cpu time    0.00: real time    0.00
     EDDAV:  cpu time    0.68: real time    0.68
       DOS:  cpu time    0.00: real time    0.00
    CHARGE:  cpu time    0.01: real time    0.01
    MIXING:  cpu time    0.00: real time    0.00
    --------------------------------------------
      LOOP:  cpu time    0.69: real time    0.69

 eigenvalue-minimisations  :  4510
 total energy-change (2. order) : 0.2035115E+00  (-0.1042131E+00)
 number of electron      36.0000070 magnetization 
 augmentation part       11.1576735 magnetization 

 Broyden mixing:
  rms(total) = 0.14959E+00    rms(broyden)= 0.14956E+00
  rms(prec ) = 0.26058E+00
  weight for this iteration     100.00

 eigenvalues of (default mixing * dielectric matrix)
  average eigenvalue GAMMA=   1.4272
  2.1497  2.1497  0.8545  0.5548

 Free energy of the ion-electron system (eV)
  ---------------------------------------------------
  alpha Z        PSCENC =       166.69949767
  Ewald energy   TEWEN  =     -2274.95761532
  -Hartree energ DENC   =      -683.99190943
  -exchange      EXHF   =         0.00000000
  -V(xc)+E(xc)   XCENC  =       137.59703114
  PAW double counting   =      3586.96745609    -3593.57268701
  entropy T*S    EENTRO =         0.00685861
  eigenvalues    EBANDS =      -330.84039633
  atomic energy  EATOM  =      2952.05274943
  ---------------------------------------------------
  free energy    TOTEN  =       -40.03901514 eV

  energy without entropy =      -40.04587376  energy(sigma->0) =      -40.04130135


--------------------------------------------------------------------------------------------------------




----------------------------------------- Iteration    1(  10)  ---------------------------------------


    POTLOK:  cpu time    0.00: real time    0.00
    SETDIJ:  cpu time    0.00: real time    0.00
     EDDAV:  cpu time    0.80: real time    0.80
       DOS:  cpu time    0.00: real time    0.00
    CHARGE:  cpu time    0.02: real time    0.02
    MIXING:  cpu time    0.00: real time    0.00
    --------------------------------------------
      LOOP:  cpu time    0.83: real time    0.83

 eigenvalue-minimisations  :  5126
 total energy-change (2. order) : 0.1359135E-01  (-0.1895722E-01)
 number of electron      36.0000071 magnetization 
 augmentation part       11.1144165 magnetization 

 Broyden mixing:
  rms(total) = 0.39986E-01    rms(broyden)= 0.39926E-01
  rms(prec ) = 0.64349E-01
  weight for this iteration     100.00

 eigenvalues of (default mixing * dielectric matrix)
  average eigenvalue GAMMA=   1.3222
  2.4323  1.8691  0.8699  0.8699  0.5697

 Free energy of the ion-electron system (eV)
  ---------------------------------------------------
  alpha Z        PSCENC =       166.69949767
  Ewald energy   TEWEN  =     -2274.95761532
  -Hartree energ DENC   =      -686.63941822
  -exchange      EXHF   =         0.00000000
  -V(xc)+E(xc)   XCENC  =       137.70892364
  PAW double counting   =      3565.69309582    -3572.20125951
  entropy T*S    EENTRO =         0.00686279
  eigenvalues    EBANDS =      -328.38826009
  atomic energy  EATOM  =      2952.05274943
  ---------------------------------------------------
  free energy    TOTEN  =       -40.02542379 eV

  energy without entropy =      -40.03228658  energy(sigma->0) =      -40.02771139


--------------------------------------------------------------------------------------------------------




----------------------------------------- Iteration    1(  11)  ---------------------------------------


    POTLOK:  cpu time    0.00: real time    0.00
    SETDIJ:  cpu time    0.00: real time    0.00
     EDDAV:  cpu time    0.38: real time    0.38
       DOS:  cpu time    0.00: real time    0.00
    CHARGE:  cpu time    0.01: real time    0.01
    MIXING:  cpu time    0.00: real time    0.00
    --------------------------------------------
      LOOP:  cpu time    0.39: real time    0.39

 eigenvalue-minimisations  :  2992
 total energy-change (2. order) : 0.3627912E-03  (-0.4400084E-03)
 number of electron      36.0000071 magnetization 
 augmentation part       11.1195802 magnetization 

 Broyden mixing:
  rms(total) = 0.10671E-01    rms(broyden)= 0.10666E-01
  rms(prec ) = 0.21626E-01
  weight for this iteration     100.00

 eigenvalues of (default mixing * dielectric matrix)
  average eigenvalue GAMMA=   1.3167
  2.5693  1.8408  1.3681  0.8814  0.5650  0.6757

 Free energy of the ion-electron system (eV)
  ---------------------------------------------------
  alpha Z        PSCENC =       166.69949767
  Ewald energy   TEWEN  =     -2274.95761532
  -Hartree energ DENC   =      -686.57431503
  -exchange      EXHF   =         0.00000000
  -V(xc)+E(xc)   XCENC  =       137.71301795
  PAW double counting   =      3578.79780255    -3585.32383753
  entropy T*S    EENTRO =         0.00686171
  eigenvalues    EBANDS =      -328.43922242
  atomic energy  EATOM  =      2952.05274943
  ---------------------------------------------------
  free energy    TOTEN  =       -40.02506100 eV

  energy without entropy =      -40.03192270  energy(sigma->0) =      -40.02734823


--------------------------------------------------------------------------------------------------------




----------------------------------------- Iteration    1(  12)  ---------------------------------------


    POTLOK:  cpu time    0.00: real time    0.00
    SETDIJ:  cpu time    0.00: real time    0.00
     EDDAV:  cpu time    0.84: real time    0.84
       DOS:  cpu time    0.00: real time    0.00
    --------------------------------------------
      LOOP:  cpu time    0.85: real time    0.85

 eigenvalue-minimisations  :  5280
 total energy-change (2. order) : 0.1667612E-04  (-0.9041109E-04)
 number of electron      36.0000071 magnetization 
 augmentation part       11.1195802 magnetization 

 Free energy of the ion-electron system (eV)
  ---------------------------------------------------
  alpha Z        PSCENC =       166.69949767
  Ewald energy   TEWEN  =     -2274.95761532
  -Hartree energ DENC   =      -686.57515433
  -exchange      EXHF   =         0.00000000
  -V(xc)+E(xc)   XCENC  =       137.71680003
  PAW double counting   =      3581.00197856    -3587.52960129
  entropy T*S    EENTRO =         0.00686284
  eigenvalues    EBANDS =      -328.44056192
  atomic energy  EATOM  =      2952.05274943
  ---------------------------------------------------
  free energy    TOTEN  =       -40.02504432 eV

  energy without entropy =      -40.03190716  energy(sigma->0) =      -40.02733194


--------------------------------------------------------------------------------------------------------




 average (electrostatic) potential at core
  the test charge radii are     1.0397  1.2658  0.7215
  (the norm of the test charge is              1.0000)
       1 -52.9526       2 -45.6578       3 -70.0552       4 -70.1013       5 -70.1712
 
 
 
 E-fermi :   3.6701     XC(G=0): -11.0069     alpha+bet :-13.2781


 k-point     1 :       0.0000    0.0000    0.0000
  band No.  band energies     occupation 
      1     -28.9156      2.00000
      2     -28.8887      2.00000
      3     -28.8740      2.00000
      4     -16.6291      2.00000
      5     -16.6259      2.00000
      6     -16.6202      2.00000
      7     -13.8633      2.00000
      8     -12.7813      2.00000
      9     -12.7314      2.00000
     10       0.6597      2.00000
     11       0.6714      2.00000
     12       0.6963      2.00000
     13       2.4077      2.00000
     14       2.4119      2.00000
     15       2.5568      2.00000
     16       3.0201      2.00004
     17       3.0914      2.00033
     18       3.1341      2.00100
     19       5.8174     -0.00000
     20       5.9909     -0.00000
     21       6.0731     -0.00000
     22       8.2686     -0.00000

 k-point     2 :       0.2000    0.0000    0.0000
  band No.  band energies     occupation 
      1     -28.9147      2.00000
      2     -28.9005      2.00000
      3     -28.8873      2.00000
      4     -16.7119      2.00000
      5     -16.6226      2.00000
      6     -16.6165      2.00000
      7     -13.6504      2.00000
      8     -12.7678      2.00000
      9     -12.6310      2.00000
     10       0.2502      2.00000
     11       0.6926      2.00000
     12       0.7203      2.00000
     13       1.8250      2.00000
     14       1.9813      2.00000
     15       2.2812      2.00000
     16       2.3507      2.00000
     17       2.9036      2.00000
     18       2.9902      2.00002
     19       6.1173     -0.00000
     20       6.4685     -0.00000
     21       6.5596     -0.00000
     22       8.4162     -0.00000

 k-point     3 :       0.4000    0.0000    0.0000
  band No.  band energies     occupation 
      1     -28.9431      2.00000
      2     -28.9126      2.00000
      3     -28.8857      2.00000
      4     -16.8355      2.00000
      5     -16.6167      2.00000
      6     -16.6106      2.00000
      7     -13.3080      2.00000
      8     -12.7441      2.00000
      9     -12.4487      2.00000
     10      -0.4720      2.00000
     11       0.8203      2.00000
     12       0.8516      2.00000
     13       1.0265      2.00000
     14       1.3140      2.00000
     15       1.5033      2.00000
     16       1.8730      2.00000
     17       2.7166      2.00000
     18       2.8727      2.00000
     19       6.2321     -0.00000
     20       7.4286     -0.00000
     21       7.5397     -0.00000
     22       8.4183     -0.00000

 k-point     4 :       0.0000    0.2000    0.0000
  band No.  band energies     occupation 
      1     -28.9185      2.00000
      2     -28.9112      2.00000
      3     -28.8729      2.00000
      4     -16.7085      2.00000
      5     -16.6252      2.00000
      6     -16.6171      2.00000
      7     -13.6462      2.00000
      8     -12.7529      2.00000
      9     -12.6486      2.00000
     10       0.2430      2.00000
     11       0.6776      2.00000
     12       0.7118      2.00000
     13       1.8151      2.00000
     14       1.9992      2.00000
     15       2.2615      2.00000
     16       2.3517      2.00000
     17       2.9046      2.00000
     18       3.0287      2.00006
     19       6.0365     -0.00000
     20       6.5300     -0.00000
     21       6.5959     -0.00000
     22       8.3768     -0.00000

 k-point     5 :       0.2000    0.2000    0.0000
  band No.  band energies     occupation 
      1     -28.9175      2.00000
      2     -28.9105      2.00000
      3     -28.8992      2.00000
      4     -16.7159      2.00000
      5     -16.6716      2.00000
      6     -16.6133      2.00000
      7     -13.4703      2.00000
      8     -12.7068      2.00000
      9     -12.5773      2.00000
     10       0.0364      2.00000
     11       0.4503      2.00000
     12       0.7264      2.00000
     13       1.1320      2.00000
     14       1.6843      2.00000
     15       1.9342      2.00000
     16       2.3651      2.00000
     17       2.8140      2.00000
     18       2.8617      2.00000
     19       6.4938     -0.00000
     20       6.6709     -0.00000
     21       6.8184     -0.00000
     22       8.8570     -0.00000

 k-point     6 :       0.4000    0.2000    0.0000
  band No.  band energies     occupation 
      1     -28.9423      2.00000
      2     -28.9158      2.00000
      3     -28.9083      2.00000
      4     -16.8037      2.00000
      5     -16.6654      2.00000
      6     -16.6069      2.00000
      7     -13.2109      2.00000
      8     -12.6504      2.00000
      9     -12.3978      2.00000
     10      -0.4987      2.00000
     11      -0.0322      2.00000
     12       0.5291      2.00000
     13       0.8317      2.00000
     14       1.1751      2.00000
     15       1.6109      2.00000
     16       2.0569      2.00000
     17       2.6548      2.00000
     18       2.8214      2.00000
     19       6.6794     -0.00000
     20       7.4554     -0.00000
     21       7.5607     -0.00000
     22       8.9611     -0.00000

 k-point     7 :      -0.4000    0.2000    0.0000
  band No.  band energies     occupation 
      1     -28.9423      2.00000
      2     -28.9159      2.00000
      3     -28.9083      2.00000
      4     -16.8035      2.00000
      5     -16.6657      2.00000
      6     -16.6069      2.00000
      7     -13.2108      2.00000
      8     -12.6501      2.00000
      9     -12.3979      2.00000
     10      -0.5166      2.00000
     11      -0.0448      2.00000
     12       0.5644      2.00000
     13       0.8258      2.00000
     14       1.1816      2.00000
     15       1.6135      2.00000
     16       2.0507      2.00000
     17       2.6555      2.00000
     18       2.8239      2.00000
     19       6.6760     -0.00000
     20       7.4501     -0.00000
     21       7.5654     -0.00000
     22       8.9616     -0.00000

 k-point     8 :      -0.2000    0.2000    0.0000
  band No.  band energies     occupation 
      1     -28.9175      2.00000
      2     -28.9106      2.00000
      3     -28.8991      2.00000
      4     -16.7146      2.00000
      5     -16.6730      2.00000
      6     -16.6133      2.00000
      7     -13.4699      2.00000
      8     -12.7066      2.00000
      9     -12.5776      2.00000
     10       0.0206      2.00000
     11       0.4097      2.00000
     12       0.7231      2.00000
     13       1.1934      2.00000
     14       1.6890      2.00000
     15       1.9406      2.00000
     16       2.3485      2.00000
     17       2.8151      2.00000
     18       2.8796      2.00000
     19       6.4664     -0.00000
     20       6.6789     -0.00000
     21       6.8241     -0.00000
     22       8.8608     -0.00000

 k-point     9 :       0.0000    0.4000    0.0000
  band No.  band energies     occupation 
      1     -28.9585      2.00000
      2     -28.9121      2.00000
      3     -28.8711      2.00000
      4     -16.8317      2.00000
      5     -16.6194      2.00000
      6     -16.6112      2.00000
      7     -13.2952      2.00000
      8     -12.7249      2.00000
      9     -12.4766      2.00000
     10      -0.5138      2.00000
     11       0.7941      2.00000
     12       0.8137      2.00000
     13       1.0737      2.00000
     14       1.3339      2.00000
     15       1.4481      2.00000
     16       1.8620      2.00000
     17       2.7785      2.00000
     18       2.9305      2.00000
     19       6.1485     -0.00000
     20       7.4876     -0.00000
     21       7.5523     -0.00000
     22       8.3831     -0.00000

 k-point    10 :       0.2000    0.4000    0.0000
  band No.  band energies     occupation 
      1     -28.9577      2.00000
      2     -28.9112      2.00000
      3     -28.8977      2.00000
      4     -16.8001      2.00000
      5     -16.6687      2.00000
      6     -16.6070      2.00000
      7     -13.2052      2.00000
      8     -12.6269      2.00000
      9     -12.4244      2.00000
     10      -0.5358      2.00000
     11      -0.0492      2.00000
     12       0.5579      2.00000
     13       0.8111      2.00000
     14       1.1801      2.00000
     15       1.5988      2.00000
     16       2.0712      2.00000
     17       2.7052      2.00000
     18       2.8150      2.00000
     19       6.6168     -0.00000
     20       7.5003     -0.00000
     21       7.5673     -0.00000
     22       8.9437     -0.00000

 k-point    11 :       0.4000    0.4000    0.0000
  band No.  band energies     occupation 
      1     -28.9563      2.00000
      2     -28.9408      2.00000
      3     -28.9092      2.00000
      4     -16.7562      2.00000
      5     -16.7394      2.00000
      6     -16.6000      2.00000
      7     -13.1464      2.00000
      8     -12.3788      2.00000
      9     -12.3133      2.00000
     10      -0.8770      2.00000
     11      -0.5810      2.00000
     12      -0.2895      2.00000
     13       0.8270      2.00000
     14       0.9895      2.00000
     15       1.6594      2.00000
     16       1.8046      2.00000
     17       2.2004      2.00000
     18       3.4828      2.03450
     19       7.4926     -0.00000
     20       7.5728     -0.00000
     21       7.8526     -0.00000
     22       9.1580      0.00000

 k-point    12 :      -0.4000    0.4000    0.0000
  band No.  band energies     occupation 
      1     -28.9564      2.00000
      2     -28.9408      2.00000
      3     -28.9092      2.00000
      4     -16.7549      2.00000
      5     -16.7407      2.00000
      6     -16.6000      2.00000
      7     -13.1464      2.00000
      8     -12.3780      2.00000
      9     -12.3139      2.00000
     10      -0.8963      2.00000
     11      -0.5886      2.00000
     12      -0.2607      2.00000
     13       0.8182      2.00000
     14       0.9991      2.00000
     15       1.6680      2.00000
     16       1.7933      2.00000
     17       2.2020      2.00000
     18       3.4826      2.03480
     19       7.4893     -0.00000
     20       7.5717     -0.00000
     21       7.8565     -0.00000
     22       9.1575      0.00000

 k-point    13 :      -0.2000    0.4000    0.0000
  band No.  band energies     occupation 
      1     -28.9577      2.00000
      2     -28.9112      2.00000
      3     -28.8977      2.00000
      4     -16.7998      2.00000
      5     -16.6690      2.00000
      6     -16.6070      2.00000
      7     -13.2051      2.00000
      8     -12.6265      2.00000
      9     -12.4245      2.00000
     10      -0.5532      2.00000
     11      -0.0594      2.00000
     12       0.5902      2.00000
     13       0.8054      2.00000
     14       1.1863      2.00000
     15       1.6010      2.00000
     16       2.0655      2.00000
     17       2.7048      2.00000
     18       2.8185      2.00000
     19       6.6137     -0.00000
     20       7.4924     -0.00000
     21       7.5744     -0.00000
     22       8.9443     -0.00000

 k-point    14 :       0.0000    0.0000    0.2000
  band No.  band energies     occupation 
      1     -28.9421      2.00000
      2     -28.8878      2.00000
      3     -28.8729      2.00000
      4     -16.7036      2.00000
      5     -16.6252      2.00000
      6     -16.6217      2.00000
      7     -13.6394      2.00000
      8     -12.7254      2.00000
      9     -12.6806      2.00000
     10       0.2341      2.00000
     11       0.6683      2.00000
     12       0.6802      2.00000
     13       1.8765      2.00000
     14       1.9562      2.00000
     15       2.2524      2.00000
     16       2.2748      2.00000
     17       2.9961      2.00002
     18       3.0611      2.00014
     19       5.8943     -0.00000
     20       6.6294     -0.00000
     21       6.6618     -0.00000
     22       8.3177     -0.00000

 k-point    15 :       0.2000    0.0000    0.2000
  band No.  band energies     occupation 
      1     -28.9412      2.00000
      2     -28.8996      2.00000
      3     -28.8865      2.00000
      4     -16.7139      2.00000
      5     -16.6688      2.00000
      6     -16.6179      2.00000
      7     -13.4596      2.00000
      8     -12.6988      2.00000
      9     -12.5938      2.00000
     10       0.0314      2.00000
     11       0.4347      2.00000
     12       0.6976      2.00000
     13       1.0971      2.00000
     14       1.7060      2.00000
     15       2.0678      2.00000
     16       2.3597      2.00000
     17       2.7640      2.00000
     18       2.8001      2.00000
     19       6.4939     -0.00000
     20       6.7087     -0.00000
     21       6.8550     -0.00000
     22       8.7962     -0.00000

 k-point    16 :       0.4000    0.0000    0.2000
  band No.  band energies     occupation 
      1     -28.9429      2.00000
      2     -28.9387      2.00000
      3     -28.8849      2.00000
      4     -16.8038      2.00000
      5     -16.6607      2.00000
      6     -16.6116      2.00000
      7     -13.1877      2.00000
      8     -12.6702      2.00000
      9     -12.3992      2.00000
     10      -0.4980      2.00000
     11      -0.0635      2.00000
     12       0.5274      2.00000
     13       0.8023      2.00000
     14       1.2109      2.00000
     15       1.6290      2.00000
     16       2.1528      2.00000
     17       2.5485      2.00000
     18       2.7903      2.00000
     19       6.7499     -0.00000
     20       7.4505     -0.00000
     21       7.5656     -0.00000
     22       8.9435     -0.00000

 k-point    17 :      -0.4000    0.0000    0.2000
  band No.  band energies     occupation 
      1     -28.9431      2.00000
      2     -28.9386      2.00000
      3     -28.8849      2.00000
      4     -16.8035      2.00000
      5     -16.6611      2.00000
      6     -16.6116      2.00000
      7     -13.1874      2.00000
      8     -12.6699      2.00000
      9     -12.3994      2.00000
     10      -0.5267      2.00000
     11      -0.0778      2.00000
     12       0.5777      2.00000
     13       0.7944      2.00000
     14       1.2204      2.00000
     15       1.6304      2.00000
     16       2.1467      2.00000
     17       2.5492      2.00000
     18       2.7925      2.00000
     19       6.7461     -0.00000
     20       7.4476     -0.00000
     21       7.5676     -0.00000
     22       8.9423     -0.00000

 k-point    18 :      -0.2000    0.0000    0.2000
  band No.  band energies     occupation 
      1     -28.9412      2.00000
      2     -28.8996      2.00000
      3     -28.8865      2.00000
      4     -16.7121      2.00000
      5     -16.6707      2.00000
      6     -16.6179      2.00000
      7     -13.4589      2.00000
      8     -12.6985      2.00000
      9     -12.5944      2.00000
     10       0.0047      2.00000
     11       0.3788      2.00000
     12       0.6925      2.00000
     13       1.1864      2.00000
     14       1.7132      2.00000
     15       2.0809      2.00000
     16       2.3397      2.00000
     17       2.7665      2.00000
     18       2.8170      2.00000
     19       6.4669     -0.00000
     20       6.7201     -0.00000
     21       6.8516     -0.00000
     22       8.7986     -0.00000

 k-point    19 :       0.0000    0.2000    0.2000
  band No.  band energies     occupation 
      1     -28.9414      2.00000
      2     -28.9142      2.00000
      3     -28.8719      2.00000
      4     -16.7128      2.00000
      5     -16.6666      2.00000
      6     -16.6212      2.00000
      7     -13.4534      2.00000
      8     -12.6831      2.00000
      9     -12.6147      2.00000
     10       0.0364      2.00000
     11       0.4537      2.00000
     12       0.6850      2.00000
     13       1.0413      2.00000
     14       1.7090      2.00000
     15       2.1529      2.00000
     16       2.3750      2.00000
     17       2.7265      2.00000
     18       2.7419      2.00000
     19       6.5486     -0.00000
     20       6.6860     -0.00000
     21       6.8750     -0.00000
     22       8.7599     -0.00000

 k-point    20 :       0.2000    0.2000    0.2000
  band No.  band energies     occupation 
      1     -28.9403      2.00000
[...]
     17       3.3606      2.06076
     18       3.4561      1.82517
     19       7.7965     -0.00000
     20       7.9596     -0.00000
     21       8.0079     -0.00000
     22       9.5560      0.00000

 k-point    53 :      -0.2000    0.4000    0.4000
  band No.  band energies     occupation 
      1     -29.0549      2.00000
      2     -29.0488      2.00000
      3     -28.9999      2.00000
      4     -16.5584      2.00000
      5     -16.5011      2.00000
      6     -16.4072      2.00000
      7     -12.8889      2.00000
      8     -12.4778      2.00000
      9     -12.4075      2.00000
     10      -0.8337      2.00000
     11      -0.6107      2.00000
     12      -0.3632      2.00000
     13      -0.0580      2.00000
     14       0.2097      2.00000
     15       1.1580      2.00000
     16       2.6304      2.00000
     17       2.6633      2.00000
     18       3.3989      2.01179
     19       7.4428     -0.00000
     20       7.6310     -0.00000
     21       7.8300     -0.00000
     22       9.6028      0.00000

 k-point    54 :       0.0000   -0.4000    0.4000
  band No.  band energies     occupation 
      1     -29.0566      2.00000
      2     -29.0495      2.00000
      3     -28.9740      2.00000
      4     -16.5749      2.00000
      5     -16.5255      2.00000
      6     -16.3612      2.00000
      7     -13.1069      2.00000
      8     -12.4691      2.00000
      9     -12.3853      2.00000
     10      -0.9707      2.00000
     11      -0.7174      2.00000
     12      -0.1977      2.00000
     13       0.6437      2.00000
     14       0.9202      2.00000
     15       1.7382      2.00000
     16       1.7797      2.00000
     17       2.1751      2.00000
     18       3.3876      2.03146
     19       7.3817     -0.00000
     20       7.4949     -0.00000
     21       7.7737     -0.00000
     22       9.0489      0.00000

 k-point    55 :       0.2000   -0.4000    0.4000
  band No.  band energies     occupation 
      1     -29.0554      2.00000
      2     -29.0483      2.00000
      3     -28.9999      2.00000
      4     -16.5561      2.00000
      5     -16.5043      2.00000
      6     -16.4068      2.00000
      7     -12.8878      2.00000
      8     -12.4709      2.00000
      9     -12.4147      2.00000
     10      -0.8669      2.00000
     11      -0.7037      2.00000
     12      -0.1906      2.00000
     13      -0.0107      2.00000
     14       0.1616      2.00000
     15       1.1201      2.00000
     16       2.6251      2.00000
     17       2.6448      2.00000
     18       3.3962      2.01683
     19       7.4709     -0.00000
     20       7.6107     -0.00000
     21       7.8424     -0.00000
     22       9.6341      0.00000

 k-point    56 :       0.4000   -0.4000    0.4000
  band No.  band energies     occupation 
      1     -29.0534      2.00000
      2     -29.0473      2.00000
      3     -29.0404      2.00000
      4     -16.5276      2.00000
      5     -16.4787      2.00000
      6     -16.4678      2.00000
      7     -12.5480      2.00000
      8     -12.4568      2.00000
      9     -12.4427      2.00000
     10      -0.8594      2.00000
     11      -0.6516      2.00000
     12      -0.5361      2.00000
     13      -0.4455      2.00000
     14      -0.1776      2.00000
     15      -0.0299      2.00000
     16       3.3146      2.06967
     17       3.3557      2.06379
     18       3.4393      1.89650
     19       7.8000     -0.00000
     20       7.9624     -0.00000
     21       7.9989     -0.00000
     22       9.5187      0.00000

 k-point    57 :      -0.4000   -0.4000    0.4000
  band No.  band energies     occupation 
      1     -29.0536      2.00000
      2     -29.0471      2.00000
      3     -29.0405      2.00000
      4     -16.5275      2.00000
      5     -16.4783      2.00000
      6     -16.4681      2.00000
      7     -12.5486      2.00000
      8     -12.4558      2.00000
      9     -12.4433      2.00000
     10      -0.8568      2.00000
     11      -0.6587      2.00000
     12      -0.5446      2.00000
     13      -0.4420      2.00000
     14      -0.1715      2.00000
     15      -0.0251      2.00000
     16       3.3245      2.07083
     17       3.3483      2.06725
     18       3.4384      1.89986
     19       7.8009     -0.00000
     20       7.9645     -0.00000
     21       7.9952     -0.00000
     22       9.5120      0.00000

 k-point    58 :      -0.2000   -0.4000    0.4000
  band No.  band energies     occupation 
      1     -29.0554      2.00000
      2     -29.0482      2.00000
      3     -28.9999      2.00000
      4     -16.5561      2.00000
      5     -16.5041      2.00000
      6     -16.4068      2.00000
      7     -12.8880      2.00000
      8     -12.4709      2.00000
      9     -12.4149      2.00000
     10      -0.8671      2.00000
     11      -0.7050      2.00000
     12      -0.1956      2.00000
     13      -0.0114      2.00000
     14       0.1646      2.00000
     15       1.1274      2.00000
     16       2.6181      2.00000
     17       2.6549      2.00000
     18       3.3955      2.01822
     19       7.4732     -0.00000
     20       7.6049     -0.00000
     21       7.8420     -0.00000
     22       9.6300      0.00000

 k-point    59 :       0.0000   -0.2000    0.4000
  band No.  band energies     occupation 
      1     -29.0560      2.00000
      2     -29.0093      2.00000
      3     -28.9756      2.00000
      4     -16.6197      2.00000
      5     -16.4492      2.00000
      6     -16.3695      2.00000
      7     -13.1847      2.00000
      8     -12.7051      2.00000
      9     -12.4793      2.00000
     10      -0.6819      2.00000
     11      -0.1931      2.00000
     12       0.5976      2.00000
     13       0.7127      2.00000
     14       1.1867      2.00000
     15       1.5734      2.00000
     16       2.1530      2.00000
     17       2.5311      2.00000
     18       2.6984      2.00000
     19       6.5708     -0.00000
     20       7.3654     -0.00000
     21       7.5346     -0.00000
     22       8.8346     -0.00000

 k-point    60 :       0.2000   -0.2000    0.4000
  band No.  band energies     occupation 
      1     -29.0550      2.00000
      2     -29.0093      2.00000
      3     -29.0007      2.00000
      4     -16.5901      2.00000
      5     -16.4445      2.00000
      6     -16.4160      2.00000
      7     -13.0317      2.00000
      8     -12.6577      2.00000
      9     -12.4631      2.00000
     10      -0.6671      2.00000
     11      -0.2861      2.00000
     12       0.0642      2.00000
     13       0.3517      2.00000
     14       0.7437      2.00000
     15       1.5061      2.00000
     16       2.5303      2.00000
     17       2.6375      2.00000
     18       2.7767      2.00000
     19       6.7926     -0.00000
     20       7.4561     -0.00000
     21       7.5566     -0.00000
     22       9.6396      0.00000

 k-point    61 :       0.4000   -0.2000    0.4000
  band No.  band energies     occupation 
      1     -29.0537      2.00000
      2     -29.0438      2.00000
      3     -29.0060      2.00000
      4     -16.5495      2.00000
      5     -16.5067      2.00000
      6     -16.4125      2.00000
      7     -12.9055      2.00000
      8     -12.4642      2.00000
      9     -12.4070      2.00000
     10      -0.8205      2.00000
     11      -0.6405      2.00000
     12      -0.3698      2.00000
     13      -0.0332      2.00000
     14       0.2498      2.00000
     15       1.1675      2.00000
     16       2.6487      2.00000
     17       2.6711      2.00000
     18       3.3730      2.05017
     19       7.4259     -0.00000
     20       7.6099     -0.00000
     21       7.8435     -0.00000
     22       9.5898      0.00000

 k-point    62 :      -0.4000   -0.2000    0.4000
  band No.  band energies     occupation 
      1     -29.0539      2.00000
      2     -29.0435      2.00000
      3     -29.0061      2.00000
      4     -16.5482      2.00000
      5     -16.5089      2.00000
      6     -16.4122      2.00000
      7     -12.9044      2.00000
      8     -12.4604      2.00000
      9     -12.4106      2.00000
     10      -0.8459      2.00000
     11      -0.6966      2.00000
     12      -0.2521      2.00000
     13       0.0131      2.00000
     14       0.2012      2.00000
     15       1.1351      2.00000
     16       2.6210      2.00000
     17       2.6704      2.00000
     18       3.3760      2.04689
     19       7.4646     -0.00000
     20       7.5769     -0.00000
     21       7.8580     -0.00000
     22       9.6442      0.00000

 k-point    63 :      -0.2000   -0.2000    0.4000
  band No.  band energies     occupation 
      1     -29.0551      2.00000
      2     -29.0084      2.00000
      3     -29.0015      2.00000
      4     -16.5900      2.00000
      5     -16.4472      2.00000
      6     -16.4144      2.00000
      7     -13.0278      2.00000
      8     -12.6617      2.00000
      9     -12.4611      2.00000
     10      -0.7034      2.00000
     11      -0.2506      2.00000
     12       0.0072      2.00000
     13       0.4385      2.00000
     14       0.8402      2.00000
     15       1.4078      2.00000
     16       2.5191      2.00000
     17       2.5337      2.00000
     18       2.8067      2.00000
     19       6.8886     -0.00000
     20       7.4056     -0.00000
     21       7.5758     -0.00000
     22       9.6998      0.00000


--------------------------------------------------------------------------------------------------------


 soft charge-density along one line, spin component           1
         0         1         2         3         4         5         6         7         8         9
 total charge-density along one line
 
 pseudopotential strength for first ion, spin component:           1
-30.182  -0.008  -0.004   7.067   0.004   0.002   0.002   0.003
 -0.008 -30.179  -0.005   0.004   7.065   0.003  -0.000   0.003
 -0.004  -0.005 -30.187   0.002   0.003   7.070   0.002  -0.000
  7.067   0.004   0.002   3.775  -0.002  -0.001   0.001   0.002
  0.004   7.065   0.003  -0.002   3.776  -0.001   0.000   0.001
  0.002   0.003   7.070  -0.001  -0.001   3.774   0.002   0.000
  0.002  -0.000   0.002   0.001   0.000   0.002  -3.640  -0.003
  0.003   0.003  -0.000   0.002   0.001   0.000  -0.003  -3.636
  0.006  -0.013   0.004  -0.004   0.008  -0.002   0.002  -0.002
 -0.000   0.002   0.002   0.000   0.001   0.002  -0.004  -0.002
  0.010  -0.000  -0.006  -0.006   0.000   0.004  -0.000   0.003
  0.002  -0.000   0.002   0.001   0.000   0.002  -3.815  -0.003
  0.003   0.003  -0.000   0.002   0.002   0.000  -0.003  -3.810
  0.007  -0.016   0.004  -0.004   0.009  -0.003   0.003  -0.002
 -0.000   0.002   0.002   0.000   0.001   0.002  -0.005  -0.003
  0.012  -0.000  -0.008  -0.007   0.000   0.005  -0.000   0.004
  0.004   0.004   0.002  -0.001  -0.001  -0.001   0.001   0.002
  0.012   0.013   0.007  -0.003  -0.003  -0.002   0.002   0.004
 total augmentation occupancy for first ion, spin component:           1
  1.976  -0.000  -0.000  -0.064  -0.001  -0.000  -0.006  -0.012  -0.032   0.001  -0.054   0.006   0.011   0.028  -0.001   0.047
 -0.000   1.976  -0.000  -0.001  -0.064  -0.000   0.001  -0.011   0.069  -0.006   0.001  -0.001   0.010  -0.060   0.006  -0.001
 -0.000  -0.000   1.976  -0.000  -0.000  -0.065  -0.009   0.001  -0.022  -0.010   0.037   0.008  -0.001   0.019   0.010  -0.032
 -0.064  -0.001  -0.000   0.336  -0.008  -0.005  -0.069  -0.121  -0.232   0.006  -0.389   0.049   0.086   0.162  -0.005   0.271
 -0.001  -0.064  -0.000  -0.008   0.339  -0.005   0.006  -0.112   0.499  -0.072   0.004  -0.004   0.079  -0.348   0.051  -0.003
 -0.000  -0.000  -0.065  -0.005  -0.005   0.331  -0.099   0.006  -0.157  -0.112   0.269   0.070  -0.005   0.109   0.079  -0.187
 -0.006   0.001  -0.009  -0.069   0.006  -0.099   3.917   0.011   0.260   0.006  -0.000  -2.453  -0.012  -0.189  -0.009   0.000
 -0.012  -0.011   0.001  -0.121  -0.112   0.006   0.011   4.131  -0.224   0.014   0.383  -0.012  -2.592   0.163  -0.013  -0.279
 -0.032   0.069  -0.022  -0.232   0.499  -0.157   0.260  -0.224  13.657  -0.146   0.116  -0.190   0.164  -9.496   0.107  -0.086
  0.001  -0.006  -0.010   0.006  -0.072  -0.112   0.006   0.014  -0.146   3.976  -0.253  -0.009  -0.013   0.106  -2.491   0.184
 -0.054   0.001   0.037  -0.389   0.004   0.269  -0.000   0.383   0.116  -0.253  13.405   0.000  -0.280  -0.086   0.185  -9.310
  0.006  -0.001   0.008   0.049  -0.004   0.070  -2.453  -0.012  -0.190  -0.009   0.000   1.544   0.011   0.139   0.011  -0.000
  0.011   0.010  -0.001   0.086   0.079  -0.005  -0.012  -2.592   0.164  -0.013  -0.280   0.011   1.638  -0.120   0.012   0.205
  0.028  -0.060   0.019   0.162  -0.348   0.109  -0.189   0.163  -9.496   0.106  -0.086   0.139  -0.120   6.674  -0.078   0.064
 -0.001   0.006   0.010  -0.005   0.051   0.079  -0.009  -0.013   0.107  -2.491   0.185   0.011   0.012  -0.078   1.569  -0.135
  0.047  -0.001  -0.032   0.271  -0.003  -0.187   0.000  -0.279  -0.086   0.184  -9.310  -0.000   0.205   0.064  -0.135   6.536
  0.003   0.004   0.003   0.070   0.077   0.049  -0.097  -0.169   0.061  -0.110  -0.057   0.067   0.118  -0.043   0.076   0.041
 -0.000  -0.000  -0.000  -0.001  -0.001  -0.001   0.003   0.006  -0.002   0.004   0.001  -0.003  -0.005   0.001  -0.003  -0.001


------------------------ aborting loop because EDIFF is reached ----------------------------------------


    CHARGE:  cpu time    0.01: real time    0.01
    FORLOC:  cpu time    0.00: real time    0.00
    FORNL :  cpu time    0.06: real time    0.06
    STRESS:  cpu time    0.62: real time    0.62
    FORCOR:  cpu time    0.00: real time    0.00
    FORHAR:  cpu time    0.00: real time    0.00
    MIXING:  cpu time    0.00: real time    0.00
    OFIELD:  cpu time    0.00: real time    0.00

  FORCE on cell =-STRESS in cart. coord.  units (eV):
  Direction    XX          YY          ZZ          XY          YZ          ZX
  --------------------------------------------------------------------------------------
  Alpha Z   166.69950   166.69950   166.69950
  Ewald    -751.99281  -756.26070  -758.99408    -2.12669    -3.62875    -2.45331
  Hartree   234.67789   230.74287   228.46296    -1.03751    -1.90658    -1.22437
  E(xc)    -170.38632  -170.38807  -170.38934    -0.00554    -0.01112    -0.00662
  Local     -46.19112   -38.01793   -33.00877     3.17056     5.58072     3.69361
  n-local   -88.14620   -88.18627   -88.21186    -0.00272     0.06093     0.00976
  augment   132.77588   132.80657   132.81472    -0.01796    -0.03807    -0.02211
  Kinetic   521.49813   521.95639   522.14844     0.25091     0.43192     0.28156
  Fock        0.00000     0.00000     0.00000     0.00000     0.00000     0.00000
  -------------------------------------------------------------------------------------
  Total      -1.06505    -0.64765    -0.47842     0.23105     0.48905     0.27853
  in kB     -29.16403   -17.73447   -13.10036     6.32670    13.39140     7.62690
  external pressure =      -20.00 kB  Pullay stress =        0.00 kB


 VOLUME and BASIS-vectors are now :
 -----------------------------------------------------------------------------
  energy-cutoff  :      400.00
  volume of cell :       58.51
      direct lattice vectors                 reciprocal lattice vectors
     3.882200000  0.000000000  0.000000000     0.257585905  0.000000000  0.000000000
     0.000000000  3.882200000  0.000000000     0.000000000  0.257585905  0.000000000
     0.000000000  0.000000000  3.882200000     0.000000000  0.000000000  0.257585905

  length of vectors
     3.882200000  3.882200000  3.882200000     0.257585905  0.257585905  0.257585905


 FORCES acting on ions
    electron-ion (+dipol)            ewald-force                    non-local-force                 convergence-correction
 -----------------------------------------------------------------------------------------------
   -.266E+01 -.694E+01 -.882E+01   0.257E+01 0.677E+01 0.862E+01   0.823E-01 0.150E+00 0.177E+00   0.322E-01 0.405E-01 0.444E-01
   0.276E+02 0.446E+02 0.511E+02   -.271E+02 -.440E+02 -.503E+02   -.446E+00 -.700E+00 -.795E+00   -.604E-02 -.971E-02 -.101E-01
   -.158E+02 -.720E+01 -.825E+01   0.185E+02 0.731E+01 0.836E+01   -.269E+01 -.894E-01 -.997E-01   -.356E-01 0.124E-01 0.201E-01
   -.328E+01 -.210E+02 -.666E+01   0.326E+01 0.250E+02 0.658E+01   0.298E-01 -.390E+01 0.356E-01   0.886E-02 -.925E-01 0.462E-01
   -.284E+01 -.505E+01 -.224E+02   0.277E+01 0.490E+01 0.268E+02   0.656E-01 0.956E-01 -.429E+01   0.164E-01 0.465E-01 -.965E-01
 -----------------------------------------------------------------------------------------------
   0.295E+01 0.444E+01 0.496E+01   0.888E-15 0.888E-15 0.178E-13   -.296E+01 -.444E+01 -.497E+01   0.159E-01 -.288E-02 0.405E-02
 
 
 POSITION                                       TOTAL-FORCE (eV/Angst)
 -----------------------------------------------------------------------------------
      0.04203      0.06291      0.07410         0.017787      0.019882      0.024401
      2.03661      2.10080      2.13087        -0.024829     -0.033480     -0.032891
      1.92506     -0.05777     -0.06215        -0.007640      0.034718      0.030250
     -0.04043      1.92096     -0.06844         0.011452     -0.020674      0.003694
     -0.04226     -0.06706      1.92429         0.003229     -0.000445     -0.025455
 -----------------------------------------------------------------------------------
    total drift:                                0.003880     -0.006374     -0.008540


--------------------------------------------------------------------------------------------------------



  FREE ENERGIE OF THE ION-ELECTRON SYSTEM (eV)
  ---------------------------------------------------
  free  energy   TOTEN  =       -40.10684701 eV

  energy  without entropy=      -40.11374924  energy(sigma->0) =      -40.10914776
 
 d Force = 0.3889260E-03[-0.251E-04, 0.803E-03]  d Energy = 0.3587929E-03 0.301E-04
 d Force = 0.4247873E+00[ 0.418E+00, 0.432E+00]  d Ewald  = 0.4247858E+00 0.141E-05


--------------------------------------------------------------------------------------------------------


    POTLOK:  cpu time    0.00: real time    0.00


--------------------------------------------------------------------------------------------------------


 stress matrix after NEB project (eV)
     -1.06505      0.23105      0.27853
      0.23105     -0.64765      0.48905
      0.27853      0.48905     -0.47842
  FORCES: max atom, RMS     0.053096    0.038822
  FORCE total and by dimension    0.086809    0.034718
  Stress total and by dimension    1.588371    1.065052


--------------------------------------------------------------------------------------------------------


  
 reached required accuracy - stopping structural energy minimisation
 writing wavefunctions
     LOOP+:  cpu time    2.42: real time    2.48
    4ORBIT:  cpu time    0.00: real time    0.00

 total amount of memory used by VASP on root node    61338. kBytes
========================================================================

   base      :      30000. kBytes
   nonl-proj :      29425. kBytes
   fftplans  :        145. kBytes
   grid      :        538. kBytes
   one-center:         77. kBytes
   wavefun   :       1153. kBytes
 
  
  
 General timing and accounting informations for this job:
 ========================================================
  
                  Total CPU time used (sec):       67.735
                            User time (sec):       67.313
                          System time (sec):        0.422
                         Elapsed time (sec):       67.975
  
                   Maximum memory used (kb):       91180.
                   Average memory used (kb):           0.
  
                          Minor page faults:        30939
                          Major page faults:            0
                 Voluntary context switches:         2009
