    5    5    1    1
  0.1172182E+02  0.3884380E-09  0.3884380E-09  0.3884380E-09  0.5000000E-15
  1.000000000000000E-004
  CAR 
 unknown system                          
     36     35     22
 
  0.0000000E+00  0.0000000E+00  0.0000000E+00  0.1953125E-02
    1      -29.041736
    2      -29.041736
    3      -29.041736
    4      -16.612304
    5      -16.612304
    6      -16.612304
    7      -13.873893
    8      -12.777729
    9      -12.777729
   10        0.647596
   11        0.647596
   12        0.647596
   13        2.573630
   14        2.573630
   15        2.573630
   16        3.282777
   17        3.282777
   18        3.282777
   19        5.567558
   20        5.567558
   21        5.567558
   22        8.036735
 
  0.1250000E+00  0.0000000E+00  0.0000000E+00  0.1171875E-01
    1      -29.052865
    2      -29.041286
    3      -29.041286
    4      -16.648240
    5      -16.610783
    6      -16.610783
    7      -13.781106
    8      -12.774352
    9      -12.734523
   10        0.468956
   11        0.655140
   12        0.655140
   13        2.360693
   14        2.360693
   15        2.436138
   16        2.776669
   17        3.196198
   18        3.196198
   19        5.592429
   20        5.924177
   21        5.924177
   22        8.052370
 
  0.2500000E+00  0.0000000E+00  0.0000000E+00  0.1171875E-01
    1      -29.079547
    2      -29.040197
    3      -29.040197
    4      -16.730665
    5      -16.607102
    6      -16.607102
    7      -13.558501
    8      -12.762032
    9      -12.625201
   10        0.020940
   11        0.692873
   12        0.692873
   13        1.869519
   14        1.882030
   15        1.882030
   16        2.150037
   17        3.086828
   18        3.086828
   19        5.654184
   20        6.642113
   21        6.642113
   22        8.066308
 
  0.3750000E+00  0.0000000E+00  0.0000000E+00  0.1171875E-01
    1      -29.105967
    2      -29.039084
    3      -29.039084
    4      -16.807906
    5      -16.603423
    6      -16.603423
    7      -13.335739
    8      -12.747588
    9      -12.505636
   10       -0.475053
   11        0.791520
   12        0.791520
   13        1.220837
   14        1.420711
   15        1.420711
   16        1.897389
   17        3.023264
   18        3.023264
   19        5.718859
   20        7.272918
   21        7.272918
   22        8.073514
 
  0.5000000E+00  0.0000000E+00  0.0000000E+00  0.5859375E-02
    1      -29.116831
    2      -29.038633
    3      -29.038633
    4      -16.838478
    5      -16.601888
    6      -16.601888
    7      -13.241725
    8      -12.742542
    9      -12.451453
   10       -0.695456
   11        0.911200
   12        0.911200
   13        1.011216
   14        1.166204
   15        1.166204
   16        1.797172
   17        3.005573
   18        3.005573
   19        5.746550
   20        7.523550
   21        7.523550
   22        8.075746
 
  0.1250000E+00  0.1250000E+00  0.0000000E+00  0.2343750E-01
    1      -29.052447
    2      -29.052413
    3      -29.040839
    4      -16.656579
    5      -16.631903
    6      -16.609209
    7      -13.693976
    8      -12.751475
    9      -12.710808
   10        0.358965
   11        0.585052
   12        0.662290
   13        1.915294
   14        2.201938
   15        2.567974
   16        2.664483
   17        2.878022
   18        3.066988
   19        5.894547
   20        5.989760
   21        6.142526
   22        8.282360
 
  0.2500000E+00  0.1250000E+00  0.0000000E+00  0.4687500E-01
    1      -29.079145
    2      -29.051366
    3      -29.039753
    4      -16.724583
    5      -16.631789
    6      -16.605405
    7      -13.485316
    8      -12.732699
    9      -12.607160
   10       -0.026538
   11        0.513691
   12        0.696235
   13        1.294510
   14        1.796617
   15        1.989358
   16        2.546106
   17        2.733670
   18        2.903374
   19        5.983122
   20        6.655814
   21        6.703740
   22        8.376845
 
  0.3750000E+00  0.1250000E+00  0.0000000E+00  0.4687500E-01
    1      -29.105604
    2      -29.050306
    3      -29.038657
    4      -16.795211
    5      -16.625092
    6      -16.601607
    7      -13.280362
    8      -12.717917
    9      -12.485048
   10       -0.485701
   11        0.384588
   12        0.789338
   13        0.850789
   14        1.369114
   15        1.569968
   16        2.407774
   17        2.655667
   18        2.815837
   19        6.037050
   20        7.275248
   21        7.277503
   22        8.396692
 
  0.5000000E+00  0.1250000E+00  0.0000000E+00  0.2343750E-01
    1      -29.116512
    2      -29.049883
    3      -29.038218
    4      -16.823632
    5      -16.622189
    6      -16.600020
    7      -13.199125
    8      -12.712146
    9      -12.429898
   10       -0.699579
   11        0.279556
   12        0.752852
   13        0.908843
   14        1.121111
   15        1.434673
   16        2.330308
   17        2.631204
   18        2.786865
   19        6.059824
   20        7.518391
   21        7.520587
   22        8.399184
 
  0.2500000E+00  0.2500000E+00  0.0000000E+00  0.2343750E-01
    1      -29.078239
    2      -29.078125
    3      -29.038690
    4      -16.722667
    5      -16.677123
    6      -16.601310
    7      -13.320800
    8      -12.668206
    9      -12.540356
   10       -0.245284
   11        0.227788
   12        0.606191
   13        0.718317
   14        1.550377
   15        1.950153
   16        2.154970
   17        2.615579
   18        2.945680
   19        6.597248
   20        6.749718
   21        6.984296
   22        8.693901
 
  0.3750000E+00  0.2500000E+00  0.0000000E+00  0.4687500E-01
    1      -29.104737
    2      -29.077224
    3      -29.037634
    4      -16.765162
    5      -16.676074
    6      -16.597208
    7      -13.180181
    8      -12.607612
    9      -12.432268
   10       -0.560322
   11       -0.202381
   12        0.267645
   13        0.790295
   14        1.234809
   15        1.690727
   16        2.105704
   17        2.448685
   18        3.047807
   19        6.695469
   20        7.284372
   21        7.397305
   22        8.801479
 
  0.5000000E+00  0.2500000E+00  0.0000000E+00  0.2343750E-01
    1      -29.115678
    2      -29.076819
    3      -29.037188
    4      -16.787532
    5      -16.670361
    6      -16.595506
    7      -13.132789
    8      -12.583423
    9      -12.373232
   10       -0.708781
   11       -0.450567
   12        0.231733
   13        0.901603
   14        1.020549
   15        1.595848
   16        2.105648
   17        2.398181
   18        3.054072
   19        6.711388
   20        7.520300
   21        7.598899
   22        8.825850
 
  0.3750000E+00  0.3750000E+00  0.0000000E+00  0.2343750E-01
    1      -29.103893
    2      -29.103843
    3      -29.036594
    4      -16.741359
    5      -16.719712
    6      -16.592807
    7      -13.127654
    8      -12.447260
    9      -12.367694
   10       -0.818771
   11       -0.480687
   12       -0.318553
   13        0.818914
   14        1.060421
   15        1.759310
   16        1.874573
   17        2.188739
   18        3.396542
   19        7.255379
   20        7.320974
   21        7.655726
   22        8.963511
 
  0.5000000E+00  0.3750000E+00  0.0000000E+00  0.2343750E-01
    1      -29.114828
    2      -29.103504
    3      -29.036159
    4      -16.751541
    5      -16.717451
    6      -16.590975
    7      -13.116686
    8      -12.388394
    9      -12.316864
   10       -0.933600
   11       -0.751880
   12       -0.376748
   13        0.891735
   14        0.924590
   15        1.740222
   16        1.862769
   17        2.102920
   18        3.496043
   19        7.292390
   20        7.522075
   21        7.801560
   22        9.000802
 
  0.5000000E+00  0.5000000E+00  0.0000000E+00  0.5859375E-02
    1      -29.114494
    2      -29.114494
    3      -29.035747
    4      -16.736649
    5      -16.736649
    6      -16.589104
    7      -13.118696
    8      -12.293616
    9      -12.293616
   10       -1.101650
   11       -0.848605
   12       -0.561065
   13        0.885454
   14        0.885454
   15        1.800840
   16        1.800840
   17        1.998200
   18        3.632051
   19        7.522888
   20        7.522888
   21        7.921939
   22        9.038113
 
  0.1250000E+00  0.1250000E+00  0.1250000E+00  0.1562500E-01
    1      -29.051993
    2      -29.051987
    3      -29.051987
    4      -16.662763
    5      -16.629318
    6      -16.629318
    7      -13.610605
    8      -12.708419
    9      -12.708419
   10        0.252417
   11        0.585881
   12        0.585881
   13        1.814511
   14        1.814511
   15        2.379338
   16        2.723238
   17        2.857050
   18        2.857050
   19        6.096714
   20        6.197235
   21        6.197235
   22        8.760899
 
  0.2500000E+00  0.1250000E+00  0.1250000E+00  0.4687500E-01
    1      -29.078718
    2      -29.050995
    3      -29.050844
    4      -16.718862
    5      -16.634284
    6      -16.623067
    7      -13.411042
    8      -12.700980
    9      -12.597111
   10       -0.079317
   11        0.455428
   12        0.584554
   13        1.254331
   14        1.313527
   15        2.075295
   16        2.569121
   17        2.705879
   18        2.786189
   19        6.206954
   20        6.718631
   21        6.734430
   22        8.793581
 
  0.3750000E+00  0.1250000E+00  0.1250000E+00  0.4687500E-01
    1      -29.105213
    2      -29.050010
    3      -29.049714
    4      -16.783442
    5      -16.627728
    6      -16.616792
    7      -13.216590
    8      -12.695075
    9      -12.470199
   10       -0.496719
   11        0.271585
   12        0.567274
   13        0.741218
   14        0.981323
   15        2.027997
   16        2.336377
   17        2.555274
   18        2.731933
   19        6.265109
   20        7.282882
   21        7.300636
   22        8.792578
 
  0.5000000E+00  0.1250000E+00  0.1250000E+00  0.2343750E-01
    1      -29.116125
    2      -29.049605
    3      -29.049256
    4      -16.809764
    5      -16.624693
    6      -16.614190
    7      -13.139790
    8      -12.692677
    9      -12.411287
   10       -0.700776
   11        0.153443
   12        0.545820
   13        0.621892
   14        0.880594
   15        2.039792
   16        2.228240
   17        2.477828
   18        2.710395
   19        6.288617
   20        7.516066
   21        7.543965
   22        8.787416
 
  0.2500000E+00  0.2500000E+00  0.1250000E+00  0.4687500E-01
    1      -29.077730
    2      -29.077720
    3      -29.049853
    4      -16.716740
    5      -16.672307
    6      -16.620782
    7      -13.240688
    8      -12.639135
    9      -12.544450
   10       -0.281675
   11        0.221660
   12        0.495694
   13        0.650543
   14        1.114976
   15        1.662196
   16        2.511991
   17        2.591964
   18        2.977396
   19        6.705055
   20        6.829277
   21        7.014503
   22        9.220259
 
  0.3750000E+00  0.2500000E+00  0.1250000E+00  0.9375000E-01
    1      -29.104279
    2      -29.076734
    3      -29.048790
    4      -16.755526
    5      -16.671927
    6      -16.614486
    7      -13.094918
    8      -12.601764
    9      -12.431212
   10       -0.564293
   11       -0.183917
   12        0.246832
   13        0.473715
   14        0.814304
   15        1.644464
   16        2.329194
   17        2.533713
   18        3.067763
   19        6.808389
   20        7.324984
   21        7.425422
   22        9.306657
 
  0.5000000E+00  0.2500000E+00  0.1250000E+00  0.4687500E-01
    1      -29.115228
    2      -29.076321
    3      -29.048347
    4      -16.776398
    5      -16.666618
    6      -16.611817
    7      -13.045880
    8      -12.588597
    9      -12.367797
   10       -0.707304
   11       -0.423851
   12        0.199912
   13        0.439128
   14        0.713981
   15        1.689390
   16        2.220549
   17        2.521731
   18        3.072844
   19        6.830130
   20        7.552058
   21        7.627431
   22        9.316707
 
  0.3750000E+00  0.3750000E+00  0.1250000E+00  0.4687500E-01
    1      -29.103347
    2      -29.103344
    3      -29.047710
    4      -16.733463
    5      -16.713063
    6      -16.608490
    7      -13.030888
    8      -12.450668
    9      -12.377235
   10       -0.781819
   11       -0.462935
   12       -0.315796
   13        0.444351
   14        0.611546
   15        1.524728
   16        2.353384
   17        2.357986
   18        3.410413
   19        7.321123
   20        7.383256
   21        7.686471
   22        9.451437
 
  0.5000000E+00  0.3750000E+00  0.1250000E+00  0.4687500E-01
    1      -29.114286
    2      -29.102954
    3      -29.047258
    4      -16.743123
    5      -16.711120
    6      -16.605951
    7      -13.017901
    8      -12.400393
    9      -12.323547
   10       -0.874050
   11       -0.746043
   12       -0.374360
   13        0.443656
   14        0.519511
   15        1.532478
   16        2.281002
   17        2.365601
   18        3.508599
   19        7.364284
   20        7.578628
   21        7.833817
   22        9.462548
 
  0.5000000E+00  0.5000000E+00  0.1250000E+00  0.1171875E-01
    1      -29.113925
    2      -29.113925
    3      -29.046813
    4      -16.729353
    5      -16.729353
    6      -16.603454
    7      -13.018485
    8      -12.305927
    9      -12.305927
   10       -1.032730
   11       -0.841228
   12       -0.558896
   13        0.445066
   14        0.445066
   15        1.514215
   16        2.305208
   17        2.305208
   18        3.644754
   19        7.587835
   20        7.587835
   21        7.956532
   22        9.449759
 
  0.2500000E+00  0.2500000E+00  0.2500000E+00  0.1562500E-01
    1      -29.076945
    2      -29.076497
    3      -29.076497
    4      -16.709097
    5      -16.660612
    6      -16.660612
    7      -13.058936
    8      -12.554002
    9      -12.554002
   10       -0.406632
   11        0.169354
   12        0.169354
   13        0.624303
   14        0.624303
   15        0.856392
   16        2.739126
   17        2.739126
   18        3.114329
   19        7.025863
   20        7.107343
   21        7.107343
   22        9.809408
 
  0.3750000E+00  0.2500000E+00  0.2500000E+00  0.4687500E-01
    1      -29.103191
    2      -29.075852
    3      -29.075266
    4      -16.732676
    5      -16.668472
    6      -16.648821
    7      -12.907443
    8      -12.563699
    9      -12.425268
   10       -0.597611
   11       -0.188125
   12        0.001500
   13        0.107757
   14        0.430231
   15        0.813965
   16        2.778180
   17        2.821951
   18        3.202262
   19        7.142910
   20        7.474706
   21        7.507044
   22        9.961049
 
  0.5000000E+00  0.2500000E+00  0.2500000E+00  0.2343750E-01
    1      -29.114089
    2      -29.075442
    3      -29.074755
    4      -16.749546
    5      -16.664406
    6      -16.643918
    7      -12.856988
    8      -12.567859
    9      -12.353728
   10       -0.707204
   11       -0.443908
   12       -0.095654
   13        0.026801
   14        0.403292
   15        0.842344
   16        2.788579
   17        2.836794
   18        3.209402
   19        7.172616
   20        7.662953
   21        7.710885
   22        9.994886
 
  0.3750000E+00  0.3750000E+00  0.2500000E+00  0.4687500E-01
    1      -29.102147
    2      -29.102022
    3      -29.074377
    4      -16.714607
    5      -16.696905
    6      -16.645874
    7      -12.791853
    8      -12.455653
    9      -12.402018
   10       -0.712378
   11       -0.407162
   12       -0.316585
   13       -0.065060
   14        0.055014
   15        0.558244
   16        2.917692
   17        2.971308
   18        3.448664
   19        7.531692
   20        7.573814
   21        7.762977
   22        9.822058
 
  0.5000000E+00  0.3750000E+00  0.2500000E+00  0.4687500E-01
    1      -29.112997
    2      -29.101628
    3      -29.073892
    4      -16.722716
    5      -16.695858
    6      -16.641693
    7      -12.771461
    8      -12.428813
    9      -12.340960
   10       -0.738572
   11       -0.731356
   12       -0.374520
   13       -0.139769
   14        0.012243
   15        0.549277
   16        2.963888
   17        2.992882
   18        3.543702
   19        7.580074
   20        7.746917
   21        7.913103
   22        9.750337
 
  0.5000000E+00  0.5000000E+00  0.2500000E+00  0.1171875E-01
    1      -29.112562
    2      -29.112562
    3      -29.073406
    4      -16.711591
    5      -16.711591
    6      -16.637885
    7      -12.766382
    8      -12.336419
    9      -12.336419
   10       -0.864118
   11       -0.829434
   12       -0.553319
   13       -0.115858
   14       -0.115858
   15        0.521627
   16        3.017826
   17        3.017826
   18        3.676099
   19        7.773622
   20        7.773622
   21        8.040883
   22        9.594586
 
  0.3750000E+00  0.3750000E+00  0.3750000E+00  0.1562500E-01
    1      -29.101094
    2      -29.100668
    3      -29.100668
    4      -16.698044
    5      -16.680529
    6      -16.680529
    7      -12.572060
    8      -12.424781
    9      -12.424781
   10       -0.706120
   11       -0.385156
   12       -0.385156
   13       -0.362714
   14       -0.241870
   15       -0.241870
   16        3.319091
   17        3.319091
   18        3.538563
   19        7.806257
   20        7.853950
   21        7.853950
   22        9.744434
 
  0.5000000E+00  0.3750000E+00  0.3750000E+00  0.2343750E-01
    1      -29.111708
    2      -29.100466
    3      -29.100130
    4      -16.702145
    5      -16.683789
    6      -16.673690
    7      -12.529936
    8      -12.435627
    9      -12.358776
   10       -0.765615
   11       -0.620959
   12       -0.487189
   13       -0.445031
   14       -0.267207
   15       -0.262959
   16        3.389389
   17        3.454426
   18        3.609698
   19        7.870070
   20        7.971687
   21        8.009889
   22        9.658974
 
  0.5000000E+00  0.5000000E+00  0.3750000E+00  0.1171875E-01
    1      -29.111177
    2      -29.111177
    3      -29.099746
    4      -16.693582
    5      -16.693582
    6      -16.672006
    7      -12.496913
    8      -12.366845
    9      -12.366845
   10       -0.854996
   11       -0.690501
   12       -0.547722
   13       -0.488032
   14       -0.488032
   15       -0.298452
   16        3.536789
   17        3.536789
   18        3.708555
   19        8.024135
   20        8.024135
   21        8.126947
   22        9.474783
 
  0.5000000E+00  0.5000000E+00  0.5000000E+00  0.1953125E-02
    1      -29.110613
    2      -29.110613
    3      -29.110613
    4      -16.686045
    5      -16.686045
    6      -16.686045
    7      -12.379630
    8      -12.379630
    9      -12.379630
   10       -0.934675
   11       -0.616593
   12       -0.616593
   13       -0.616593
   14       -0.545348
   15       -0.545348
   16        3.722407
   17        3.722407
   18        3.722407
   19        8.163739
   20        8.163739
   21        8.163740
   22        9.418885
