    5    5    1    1
  0.1170210E+02  0.3882200E-09  0.3882200E-09  0.3882200E-09  0.5000000E-15
  1.000000000000000E-004
  CAR 
 unknown system                          
     36     35     22
 
  0.0000000E+00  0.0000000E+00  0.0000000E+00  0.1953125E-02
    1      -29.022378
    2      -29.022378
    3      -29.022378
    4      -16.593165
    5      -16.593165
    6      -16.593165
    7      -13.867256
    8      -12.769020
    9      -12.769020
   10        0.658536
   11        0.658536
   12        0.658536
   13        2.584312
   14        2.584312
   15        2.584312
   16        3.297176
   17        3.297176
   18        3.297176
   19        5.584155
   20        5.584155
   21        5.584155
   22        8.061228
 
  0.1250000E+00  0.0000000E+00  0.0000000E+00  0.1171875E-01
    1      -29.033599
    2      -29.021924
    3      -29.021924
    4      -16.629504
    5      -16.591633
    6      -16.591633
    7      -13.773937
    8      -12.765601
    9      -12.725416
   10        0.479644
   11        0.665949
   12        0.665949
   13        2.370981
   14        2.370981
   15        2.446507
   16        2.790077
   17        3.210407
   18        3.210407
   19        5.609142
   20        5.941752
   21        5.941752
   22        8.077572
 
  0.2500000E+00  0.0000000E+00  0.0000000E+00  0.1171875E-01
    1      -29.060501
    2      -29.020824
    3      -29.020824
    4      -16.712796
    5      -16.587925
    6      -16.587925
    7      -13.550113
    8      -12.753205
    9      -12.615104
   10        0.030785
   11        0.703334
   12        0.703334
   13        1.880969
   14        1.891668
   15        1.891668
   16        2.159578
   17        3.100777
   18        3.100777
   19        5.671198
   20        6.661718
   21        6.661718
   22        8.092107
 
  0.3750000E+00  0.0000000E+00  0.0000000E+00  0.1171875E-01
    1      -29.087138
    2      -29.019701
    3      -29.019701
    4      -16.790786
    5      -16.584220
    6      -16.584220
    7      -13.326242
    8      -12.738697
    9      -12.494448
   10       -0.466427
   11        0.801663
   12        0.801663
   13        1.230898
   14        1.429750
   15        1.429750
   16        1.906201
   17        3.037025
   18        3.037025
   19        5.736194
   20        7.294434
   21        7.294434
   22        8.099481
 
  0.5000000E+00  0.0000000E+00  0.0000000E+00  0.5859375E-02
    1      -29.098091
    2      -29.019245
    3      -29.019245
    4      -16.821640
    5      -16.582673
    6      -16.582673
    7      -13.231827
    8      -12.733619
    9      -12.439761
   10       -0.687474
   11        0.921632
   12        0.921632
   13        1.020767
   14        1.174605
   15        1.174605
   16        1.805745
   17        3.019228
   18        3.019228
   19        5.764029
   20        7.545867
   21        7.545867
   22        8.101754
 
  0.1250000E+00  0.1250000E+00  0.0000000E+00  0.2343750E-01
    1      -29.033178
    2      -29.033142
    3      -29.021472
    4      -16.637969
    5      -16.612941
    6      -16.590047
    7      -13.686353
    8      -12.742524
    9      -12.701489
   10        0.369088
   11        0.595987
   12        0.672943
   13        1.925080
   14        2.211812
   15        2.578875
   16        2.677652
   17        2.891056
   18        3.081056
   19        5.912042
   20        6.007595
   21        6.160646
   22        8.308068
 
  0.2500000E+00  0.1250000E+00  0.0000000E+00  0.4687500E-01
    1      -29.060096
    2      -29.032086
    3      -29.020376
    4      -16.706643
    5      -16.612838
    6      -16.586215
    7      -13.476655
    8      -12.723624
    9      -12.596930
   10       -0.017107
   11        0.523847
   12        0.706500
   13        1.304114
   14        1.805879
   15        2.000144
   16        2.557048
   17        2.746374
   18        2.917206
   19        6.001003
   20        6.675493
   21        6.723356
   22        8.403288
 
  0.3750000E+00  0.1250000E+00  0.0000000E+00  0.4687500E-01
    1      -29.086773
    2      -29.031018
    3      -29.019270
    4      -16.777930
    5      -16.606076
    6      -16.582388
    7      -13.270798
    8      -12.708757
    9      -12.473702
   10       -0.477152
   11        0.392733
   12        0.799211
   13        0.861020
   14        1.377915
   15        1.579610
   16        2.418132
   17        2.668316
   18        2.829498
   19        6.055217
   20        7.296793
   21        7.298830
   22        8.423344
 
  0.5000000E+00  0.1250000E+00  0.0000000E+00  0.2343750E-01
    1      -29.097769
    2      -29.030590
    3      -29.018826
    4      -16.806607
    5      -16.603144
    6      -16.580790
    7      -13.189239
    8      -12.702934
    9      -12.418012
   10       -0.691556
   11        0.286778
   12        0.763452
   13        0.918947
   14        1.129362
   15        1.444093
   16        2.340528
   17        2.643815
   18        2.800488
   19        6.078117
   20        7.540503
   21        7.542926
   22        8.425889
 
  0.2500000E+00  0.2500000E+00  0.0000000E+00  0.2343750E-01
    1      -29.059173
    2      -29.059055
    3      -29.019298
    4      -16.704665
    5      -16.658545
    6      -16.582088
    7      -13.310542
    8      -12.657180
    9      -12.529595
   10       -0.236986
   11        0.238516
   12        0.618242
   13        0.729206
   14        1.558926
   15        1.963558
   16        2.166605
   17        2.630959
   18        2.959752
   19        6.617343
   20        6.769826
   21        7.004988
   22        8.721797
 
  0.3750000E+00  0.2500000E+00  0.0000000E+00  0.4687500E-01
    1      -29.085900
    2      -29.058160
    3      -29.018237
    4      -16.747505
    5      -16.657488
    6      -16.577953
    7      -13.170871
    8      -12.597336
    9      -12.420521
   10       -0.552589
   11       -0.195172
   12        0.277657
   13        0.799456
   14        1.242969
   15        1.700644
   16        2.116626
   17        2.462467
   18        3.059721
   19        6.715409
   20        7.305988
   21        7.418620
   22        8.829252
 
  0.5000000E+00  0.2500000E+00  0.0000000E+00  0.2343750E-01
    1      -29.096930
    2      -29.057751
    3      -29.017787
    4      -16.770054
    5      -16.651712
    6      -16.576238
    7      -13.123519
    8      -12.572905
    9      -12.360922
   10       -0.700653
   11       -0.444920
   12        0.241844
   13        0.910754
   14        1.028384
   15        1.605630
   16        2.116549
   17        2.411943
   18        3.066013
   19        6.731423
   20        7.542653
   21        7.620862
   22        8.853694
 
  0.3750000E+00  0.3750000E+00  0.0000000E+00  0.2343750E-01
    1      -29.085050
    2      -29.084998
    3      -29.017187
    4      -16.723393
    5      -16.701466
    6      -16.573516
    7      -13.118953
    8      -12.435495
    9      -12.355442
   10       -0.813261
   11       -0.471693
   12       -0.310538
   13        0.827222
   14        1.068030
   15        1.769396
   16        1.885026
   17        2.202925
   18        3.409262
   19        7.276910
   20        7.342772
   21        7.677610
   22        8.991717
 
  0.5000000E+00  0.3750000E+00  0.0000000E+00  0.2343750E-01
    1      -29.096074
    2      -29.084657
    3      -29.016748
    4      -16.733609
    5      -16.699180
    6      -16.571670
    7      -13.108245
    8      -12.376219
    9      -12.304147
   10       -0.928966
   11       -0.743247
   12       -0.368620
   13        0.899627
   14        0.932022
   15        1.750411
   16        1.873157
   17        2.117301
   18        3.508968
   19        7.314085
   20        7.544450
   21        7.823861
   22        9.029067
 
  0.5000000E+00  0.5000000E+00  0.0000000E+00  0.5859375E-02
    1      -29.095737
    2      -29.095737
    3      -29.016332
    4      -16.718529
    5      -16.718529
    6      -16.569783
    7      -13.110570
    8      -12.280733
    9      -12.280733
   10       -1.097369
   11       -0.839758
   12       -0.553947
   13        0.892730
   14        0.892730
   15        1.811192
   16        1.811192
   17        2.012980
   18        3.645256
   19        7.545279
   20        7.545279
   21        7.944525
   22        9.066370
 
  0.1250000E+00  0.1250000E+00  0.1250000E+00  0.1562500E-01
    1      -29.032718
    2      -29.032713
    3      -29.032713
    4      -16.644240
    5      -16.610332
    6      -16.610332
    7      -13.602577
    8      -12.699096
    9      -12.699096
   10        0.262018
   11        0.596604
   12        0.596604
   13        1.823942
   14        1.823942
   15        2.392919
   16        2.734320
   17        2.869946
   18        2.869946
   19        6.114863
   20        6.215509
   21        6.215509
   22        8.785232
 
  0.2500000E+00  0.1250000E+00  0.1250000E+00  0.4687500E-01
    1      -29.059665
    2      -29.031710
    3      -29.031560
    4      -16.700851
    5      -16.615362
    6      -16.604024
    7      -13.401942
    8      -12.691660
    9      -12.586814
   10       -0.070302
   11        0.465440
   12        0.594529
   13        1.264215
   14        1.322614
   15        2.087623
   16        2.581515
   17        2.716849
   18        2.798754
   19        6.225471
   20        6.738470
   21        6.754081
   22        8.820582
 
  0.3750000E+00  0.1250000E+00  0.1250000E+00  0.4687500E-01
    1      -29.086378
    2      -29.030719
    3      -29.030419
    4      -16.766016
    5      -16.608745
    6      -16.597691
    7      -13.206841
    8      -12.685748
    9      -12.458744
   10       -0.488251
   11        0.279553
   12        0.575627
   13        0.750770
   14        0.991295
   15        2.039066
   16        2.348832
   17        2.565819
   18        2.744261
   19        6.283901
   20        7.304374
   21        7.321988
   22        8.819904
 
  0.5000000E+00  0.1250000E+00  0.1250000E+00  0.2343750E-01
    1      -29.097380
    2      -29.030310
    3      -29.029956
    4      -16.792568
    5      -16.605679
    6      -16.595065
    7      -13.129756
    8      -12.683347
    9      -12.399268
   10       -0.692735
   11        0.160497
   12        0.552979
   13        0.631582
   14        0.891522
   15        2.050479
   16        2.240996
   17        2.488148
   18        2.722686
   19        6.307533
   20        7.538287
   21        7.566118
   22        8.814804
 
  0.2500000E+00  0.2500000E+00  0.1250000E+00  0.4687500E-01
    1      -29.058670
    2      -29.058659
    3      -29.030560
    4      -16.698697
    5      -16.653682
    6      -16.601722
    7      -13.231190
    8      -12.629256
    9      -12.533746
   10       -0.273717
   11        0.231378
   12        0.504435
   13        0.660359
   14        1.123287
   15        1.674221
   16        2.523358
   17        2.603947
   18        2.989113
   19        6.724968
   20        6.849407
   21        7.034813
   22        9.248352
 
  0.3750000E+00  0.2500000E+00  0.1250000E+00  0.9375000E-01
    1      -29.085437
    2      -29.057664
    3      -29.029486
    4      -16.737756
    5      -16.653303
    6      -16.595368
    7      -13.085198
    8      -12.591514
    9      -12.419471
   10       -0.556548
   11       -0.176645
   12        0.256285
   13        0.481980
   14        0.822958
   15        1.656564
   16        2.340237
   17        2.545280
   18        3.079686
   19        6.828664
   20        7.346640
   21        7.446882
   22        9.335088
 
  0.5000000E+00  0.2500000E+00  0.1250000E+00  0.4687500E-01
    1      -29.096475
    2      -29.057248
    3      -29.029039
    4      -16.758792
    5      -16.647938
    6      -16.592676
    7      -13.036169
    8      -12.578210
    9      -12.355461
   10       -0.699153
   11       -0.418108
   12        0.209574
   13        0.446251
   14        0.723366
   15        1.701799
   16        2.231238
   17        2.533231
   18        3.084780
   19        6.850520
   20        7.574433
   21        7.649533
   22        9.345184
 
  0.3750000E+00  0.3750000E+00  0.1250000E+00  0.4687500E-01
    1      -29.084497
    2      -29.084494
    3      -29.028397
    4      -16.715414
    5      -16.694755
    6      -16.589321
    7      -13.021713
    8      -12.438974
    9      -12.365095
   10       -0.775988
   11       -0.454090
   12       -0.307805
   13        0.452032
   14        0.618870
   15        1.537656
   16        2.364489
   17        2.368897
   18        3.423136
   19        7.342863
   20        7.405155
   21        7.708537
   22        9.479574
 
  0.5000000E+00  0.3750000E+00  0.1250000E+00  0.4687500E-01
    1      -29.095526
    2      -29.084102
    3      -29.027940
    4      -16.725105
    5      -16.692790
    6      -16.586759
    7      -13.008977
    8      -12.388356
    9      -12.310915
   10       -0.869229
   11       -0.737380
   12       -0.366231
   13        0.450736
   14        0.527017
   15        1.545774
   16        2.291740
   17        2.376600
   18        3.521548
   19        7.386175
   20        7.601134
   21        7.856308
   22        9.490276
 
  0.5000000E+00  0.5000000E+00  0.1250000E+00  0.1171875E-01
    1      -29.095163
    2      -29.095163
    3      -29.027491
    4      -16.711165
    5      -16.711165
    6      -16.584240
    7      -13.009864
    8      -12.293173
    9      -12.293173
   10       -1.028222
   11       -0.832314
   12       -0.551766
   13        0.452121
   14        0.452121
   15        1.527921
   16        2.316017
   17        2.316017
   18        3.658008
   19        7.610395
   20        7.610395
   21        7.979337
   22        9.476432
 
  0.2500000E+00  0.2500000E+00  0.2500000E+00  0.1562500E-01
    1      -29.057877
    2      -29.057425
    3      -29.057425
    4      -16.690946
    5      -16.641871
    6      -16.641871
    7      -13.048744
    8      -12.543436
    9      -12.543436
   10       -0.399186
   11        0.178053
   12        0.178053
   13        0.632813
   14        0.632813
   15        0.868285
   16        2.750743
   17        2.750743
   18        3.126322
   19        7.046878
   20        7.127961
   21        7.127961
   22        9.829222
 
  0.3750000E+00  0.2500000E+00  0.2500000E+00  0.4687500E-01
    1      -29.084339
    2      -29.056775
    3      -29.056182
    4      -16.714642
    5      -16.649815
    6      -16.629963
    7      -12.896918
    8      -12.553274
    9      -12.413525
   10       -0.590099
   11       -0.180460
   12        0.008307
   13        0.115947
   14        0.440087
   15        0.824656
   16        2.789719
   17        2.833767
   18        3.214426
   19        7.164091
   20        7.496719
   21        7.528772
   22        9.981631
 
  0.5000000E+00  0.2500000E+00  0.2500000E+00  0.2343750E-01
    1      -29.095327
    2      -29.056362
    3      -29.055665
    4      -16.731630
    5      -16.645711
    6      -16.625011
    7      -12.846439
    8      -12.557493
    9      -12.341344
   10       -0.698933
   11       -0.438155
   12       -0.089332
   13        0.035151
   14        0.413437
   15        0.852973
   16        2.800078
   17        2.848668
   18        3.221547
   19        7.193934
   20        7.685528
   21        7.733307
   22       10.015091
 
  0.3750000E+00  0.3750000E+00  0.2500000E+00  0.4687500E-01
    1      -29.083284
    2      -29.083155
    3      -29.055276
    4      -16.696354
    5      -16.678437
    6      -16.626990
    7      -12.781068
    8      -12.444058
    9      -12.389307
   10       -0.705099
   11       -0.398870
   12       -0.308311
   13       -0.057542
   14        0.062082
   15        0.569884
   16        2.929835
   17        2.985561
   18        3.462420
   19        7.554053
   20        7.596633
   21        7.785691
   22        9.843139
 
  0.5000000E+00  0.3750000E+00  0.2500000E+00  0.4687500E-01
    1      -29.094225
    2      -29.082762
    3      -29.054796
    4      -16.704489
    5      -16.677386
    6      -16.622770
    7      -12.761276
    8      -12.417112
    9      -12.328535
   10       -0.729725
   11       -0.726069
   12       -0.366499
   13       -0.133400
   14        0.019329
   15        0.560303
   16        2.975734
   17        3.004872
   18        3.556719
   19        7.602517
   20        7.769798
   21        7.936074
   22        9.771241
 
  0.5000000E+00  0.5000000E+00  0.2500000E+00  0.1171875E-01
    1      -29.093784
    2      -29.093784
    3      -29.054304
    4      -16.693236
    5      -16.693236
    6      -16.618929
    7      -12.756477
    8      -12.323977
    9      -12.323977
   10       -0.859040
   11       -0.820256
   12       -0.546164
   13       -0.109400
   14       -0.109400
   15        0.532831
   16        3.029839
   17        3.029839
   18        3.689473
   19        7.796651
   20        7.796651
   21        8.064233
   22        9.615029
 
  0.3750000E+00  0.3750000E+00  0.3750000E+00  0.1562500E-01
    1      -29.082224
    2      -29.081792
    3      -29.081792
    4      -16.679611
    5      -16.661906
    6      -16.661906
    7      -12.560534
    8      -12.413183
    9      -12.413183
   10       -0.698314
   11       -0.378663
   12       -0.378663
   13       -0.353791
   14       -0.234179
   15       -0.234179
   16        3.331678
   17        3.331678
   18        3.551591
   19        7.829307
   20        7.876916
   21        7.876916
   22        9.764651
 
  0.5000000E+00  0.3750000E+00  0.3750000E+00  0.2343750E-01
    1      -29.092922
    2      -29.081588
    3      -29.081247
    4      -16.683707
    5      -16.665202
    6      -16.655000
    7      -12.518467
    8      -12.424139
    9      -12.346566
   10       -0.756094
   11       -0.615283
   12       -0.481216
   13       -0.437923
   14       -0.259137
   15       -0.255216
   16        3.402115
   17        3.467322
   18        3.622920
   19        7.893263
   20        7.995138
   21        8.033390
   22        9.678971
 
  0.5000000E+00  0.5000000E+00  0.3750000E+00  0.1171875E-01
    1      -29.092386
    2      -29.092386
    3      -29.080860
    4      -16.675054
    5      -16.675054
    6      -16.653303
    7      -12.485575
    8      -12.354723
    9      -12.354723
   10       -0.845116
   11       -0.684846
   12       -0.540543
   13       -0.481999
   14       -0.481999
   15       -0.290102
   16        3.549876
   17        3.549876
   18        3.722047
   19        8.047821
   20        8.047821
   21        8.150864
   22        9.494232
 
  0.5000000E+00  0.5000000E+00  0.5000000E+00  0.1953125E-02
    1      -29.091816
    2      -29.091816
    3      -29.091816
    4      -16.667445
    5      -16.667445
    6      -16.667445
    7      -12.367641
    8      -12.367641
    9      -12.367641
   10       -0.924533
   11       -0.610702
   12       -0.610702
   13       -0.610702
   14       -0.538161
   15       -0.538161
   16        3.735946
   17        3.735946
   18        3.735946
   19        8.187892
   20        8.187892
   21        8.187893
   22        9.438087
