 vasp.5.3.5 31Mar14 (build Dec 17 2015 22:09:37) complex                        
  
 executed on             LinuxIFC date 2017.03.19  05:01:35
 running on   22 total cores
 distrk:  each k-point on   22 cores,    1 groups
 distr:  one band on NCORES_PER_BAND=   1 cores,   22 groups


--------------------------------------------------------------------------------------------------------


 INCAR:
 POTCAR:    PAW_PBE Ti_pv 07Sep2000               
 POTCAR:    PAW_PBE Ca_pv 06Sep2000               
 POTCAR:    PAW_PBE O 08Apr2002                   

 ----------------------------------------------------------------------------- 
|                                                                             |
|           W    W    AA    RRRRR   N    N  II  N    N   GGGG   !!!           |
|           W    W   A  A   R    R  NN   N  II  NN   N  G    G  !!!           |
|           W    W  A    A  R    R  N N  N  II  N N  N  G       !!!           |
|           W WW W  AAAAAA  RRRRR   N  N N  II  N  N N  G  GGG   !            |
|           WW  WW  A    A  R   R   N   NN  II  N   NN  G    G                |
|           W    W  A    A  R    R  N    N  II  N    N   GGGG   !!!           |
|                                                                             |
|      For optimal performance we recommend to set                            |
|        NCORE= 4 - approx SQRT( number of cores)                             |
|      NCORE specifies how many cores store one orbital (NPAR=cpu/NCORE).     |
|      This setting can  greatly improve the performance of VASP for DFT.     |
|      The default, NPAR=number of cores might be grossly inefficient         |
|      on modern multi-core architectures or massively parallel machines.     |
|      Do your own testing !!!!                                               |
|      Unfortunately you need to use the default for GW and RPA calculations. |
|      (for HF NCORE is supported but not extensively tested yet)             |
|                                                                             |
 ----------------------------------------------------------------------------- 

 POTCAR:    PAW_PBE Ti_pv 07Sep2000               
   VRHFIN =Ti: d3 s1                                                            
   LEXCH  = PE                                                                  
   EATOM  =  1042.5995 eV,   76.6289 Ry                                         
                                                                                
   TITEL  = PAW_PBE Ti_pv 07Sep2000                                             
   LULTRA =        F    use ultrasoft PP ?                                      
   IUNSCR =        1    unscreen: 0-lin 1-nonlin 2-no                           
   RPACOR =    2.200    partial core radius                                     
   POMASS =   47.880; ZVAL   =   10.000    mass and valenz                      
   RCORE  =    2.500    outmost cutoff radius                                   
   RWIGS  =    2.500; RWIGS  =    1.323    wigner-seitz radius (au A)           
   ENMAX  =  222.335; ENMIN  =  166.751 eV                                      
   RCLOC  =    1.701    cutoff for local pot                                    
   LCOR   =        T    correct aug charges                                     
   LPAW   =        T    paw PP                                                  
   EAUG   =  482.848                                                            
   DEXC   =    0.000                                                            
   RMAX   =    2.564    core radius for proj-oper                               
   RAUG   =    1.300    factor for augmentation sphere                          
   RDEP   =    2.538    radius for radial grids                                 
   RDEPT  =    1.952    core radius for aug-charge                              
                                                                                
   Atomic configuration                                                         
    8 entries                                                                   
     n  l   j            E        occ.                                          
     1  0  0.50     -4865.3608   2.0000                                         
     2  0  0.50      -533.1368   2.0000                                         
     2  1  1.50      -440.5031   6.0000                                         
     3  0  0.50       -59.3186   2.0000                                         
     3  1  1.50       -35.7012   6.0000                                         
     3  2  2.50        -1.9157   3.0000                                         
     4  0  0.50        -3.7291   1.0000                                         
     4  3  2.50        -1.3606   0.0000                                         
   Description                                                                  
     l       E           TYP  RCUT    TYP  RCUT                                 
     1    -35.7012140     23  2.300                                             
     1     -1.3605826     23  2.300                                             
     2     -1.9156996     23  2.500                                             
     2     -0.4063033     23  2.500                                             
     0     -3.7290856     23  2.500                                             
     0     20.4087390     23  2.500                                             
  local pseudopotential read in
  partial core-charges read in
  partial kinetic energy density read in
  atomic valenz-charges read in
  non local Contribution for L=           1  read in
    real space projection operators read in
  non local Contribution for L=           1  read in
    real space projection operators read in
  non local Contribution for L=           2  read in
    real space projection operators read in
  non local Contribution for L=           2  read in
    real space projection operators read in
  non local Contribution for L=           0  read in
    real space projection operators read in
  non local Contribution for L=           0  read in
    real space projection operators read in
    PAW grid and wavefunctions read in
 
   number of l-projection  operators is LMAX  =           6
   number of lm-projection operators is LMMAX =          18
 
 POTCAR:    PAW_PBE Ca_pv 06Sep2000               
   VRHFIN =Ca: p6s2d0.01                                                        
   LEXCH  = PE                                                                  
   EATOM  =   612.6676 eV,   45.0298 Ry                                         
                                                                                
   TITEL  = PAW_PBE Ca_pv 06Sep2000                                             
   LULTRA =        F    use ultrasoft PP ?                                      
   IUNSCR =        1    unscreen: 0-lin 1-nonlin 2-no                           
   RPACOR =    2.300    partial core radius                                     
   POMASS =   40.078; ZVAL   =    8.000    mass and valenz                      
   RCORE  =    3.000    outmost cutoff radius                                   
   RWIGS  =    3.300; RWIGS  =    1.746    wigner-seitz radius (au A)           
   ENMAX  =  119.559; ENMIN  =   89.670 eV                                      
   RCLOC  =    1.709    cutoff for local pot                                    
   LCOR   =        T    correct aug charges                                     
   LPAW   =        T    paw PP                                                  
   EAUG   =  325.799                                                            
   DEXC   =    0.000                                                            
   RMAX   =    3.072    core radius for proj-oper                               
   RAUG   =    1.300    factor for augmentation sphere                          
   RDEP   =    3.090    radius for radial grids                                 
   RDEPT  =    2.377    core radius for aug-charge                              
                                                                                
   Atomic configuration                                                         
    7 entries                                                                   
     n  l   j            E        occ.                                          
     1  0  0.50     -3949.1705   2.0000                                         
     2  0  0.50      -414.3434   2.0000                                         
     2  1  1.50      -334.7047   6.0000                                         
     3  0  0.50       -47.0896   2.0000                                         
     3  1  1.50       -28.0061   6.0000                                         
     4  0  0.50        -3.7663   2.0000                                         
     3  2  1.50        -4.0817   0.0000                                         
   Description                                                                  
     l       E           TYP  RCUT    TYP  RCUT                                 
     1    -28.0060855     23  3.000                                             
     1      1.3605826     23  3.000                                             
     0     -3.7663320     23  3.000                                             
     0      4.1207953     23  3.000                                             
     2     -4.0817478     23  3.000                                             
     2     -0.8716232     23  3.000                                             
  local pseudopotential read in
  partial core-charges read in
  partial kinetic energy density read in
  atomic valenz-charges read in
  non local Contribution for L=           1  read in
    real space projection operators read in
  non local Contribution for L=           1  read in
    real space projection operators read in
  non local Contribution for L=           0  read in
    real space projection operators read in
  non local Contribution for L=           0  read in
    real space projection operators read in
  non local Contribution for L=           2  read in
    real space projection operators read in
  non local Contribution for L=           2  read in
    real space projection operators read in
    PAW grid and wavefunctions read in
 
   number of l-projection  operators is LMAX  =           6
   number of lm-projection operators is LMMAX =          18
 
 POTCAR:    PAW_PBE O 08Apr2002                   
   VRHFIN =O: s2p4                                                              
   LEXCH  = PE                                                                  
   EATOM  =   432.3788 eV,   31.7789 Ry                                         
                                                                                
   TITEL  = PAW_PBE O 08Apr2002                                                 
   LULTRA =        F    use ultrasoft PP ?                                      
   IUNSCR =        1    unscreen: 0-lin 1-nonlin 2-no                           
   RPACOR =    1.200    partial core radius                                     
   POMASS =   16.000; ZVAL   =    6.000    mass and valenz                      
   RCORE  =    1.520    outmost cutoff radius                                   
   RWIGS  =    1.550; RWIGS  =    0.820    wigner-seitz radius (au A)           
   ENMAX  =  400.000; ENMIN  =  300.000 eV                                      
   ICORE  =        2    local potential                                         
   LCOR   =        T    correct aug charges                                     
   LPAW   =        T    paw PP                                                  
   EAUG   =  605.392                                                            
   DEXC   =    0.000                                                            
   RMAX   =    1.553    core radius for proj-oper                               
   RAUG   =    1.300    factor for augmentation sphere                          
   RDEP   =    1.550    radius for radial grids                                 
   RDEPT  =    1.329    core radius for aug-charge                              
                                                                                
   Atomic configuration                                                         
    4 entries                                                                   
     n  l   j            E        occ.                                          
     1  0  0.50      -514.6923   2.0000                                         
     2  0  0.50       -23.9615   2.0000                                         
     2  1  0.50        -9.0305   4.0000                                         
     3  2  1.50        -9.5241   0.0000                                         
   Description                                                                  
     l       E           TYP  RCUT    TYP  RCUT                                 
     0    -23.9615318     23  1.200                                             
     0     -9.5240782     23  1.200                                             
     1     -9.0304911     23  1.520                                             
     1      8.1634956     23  1.520                                             
     2     -9.5240782      7  1.500                                             
  local pseudopotential read in
  partial core-charges read in
  partial kinetic energy density read in
  kinetic energy density of atom read in
  atomic valenz-charges read in
  non local Contribution for L=           0  read in
    real space projection operators read in
  non local Contribution for L=           0  read in
    real space projection operators read in
  non local Contribution for L=           1  read in
    real space projection operators read in
  non local Contribution for L=           1  read in
    real space projection operators read in
    PAW grid and wavefunctions read in
 
   number of l-projection  operators is LMAX  =           4
   number of lm-projection operators is LMMAX =           8
 
  PAW_PBE Ti_pv 07Sep2000               :
 energy of atom  1       EATOM=-1042.5995
 kinetic energy error for atom=    0.0037 (will be added to EATOM!!)
  PAW_PBE Ca_pv 06Sep2000               :
 energy of atom  2       EATOM= -612.6676
 kinetic energy error for atom=    0.0002 (will be added to EATOM!!)
  PAW_PBE O 08Apr2002                   :
 energy of atom  3       EATOM= -432.3788
 kinetic energy error for atom=    0.1156 (will be added to EATOM!!)
 
 
 POSCAR: CaTiO3                                  
  positions in direct lattice
  velocities in cartesian coordinates
  No initial velocities read in
 exchange correlation table for  LEXCH =        8
   RHO(1)=    0.500       N(1)  =     2000
   RHO(2)=  100.500       N(2)  =     4000

 VTST: version 3.1, (03/28/14)

 CHAIN: initializing optimizer
 
 OPT: Using VASP Dynamics algorithm
 CHAIN: Read ICHAIN            0
 
 POSCAR: CaTiO3                                  
  positions in direct lattice
  velocities in cartesian coordinates
  No initial velocities read in
 


--------------------------------------------------------------------------------------------------------


 ion  position               nearest neighbor table
   1  0.000  0.000  0.000-   3 1.94   4 1.94   5 1.94   5 1.94   4 1.94   3 1.94   2 3.36   2 3.36
                             2 3.36   2 3.36   2 3.36   2 3.36   2 3.36   2 3.36
   2  0.500  0.500  0.500-   3 2.75   4 2.75   5 2.75   3 2.75   4 2.75   3 2.75   5 2.75   3 2.75
                             4 2.75   5 2.75   4 2.75   5 2.75   1 3.36   1 3.36   1 3.36   1 3.36
   3  0.500  0.000  0.000-   1 1.94   1 1.94   2 2.75   2 2.75   2 2.75   2 2.75
   4  0.000  0.500  0.000-   1 1.94   1 1.94   2 2.75   2 2.75   2 2.75   2 2.75
   5  0.000  0.000  0.500-   1 1.94   1 1.94   2 2.75   2 2.75   2 2.75   2 2.75
 
  LATTYP: Found a simple cubic cell.
 ALAT       =     3.8822000000
  
  Lattice vectors:
  
 A1 = (   3.8822000000,   0.0000000000,   0.0000000000)
 A2 = (   0.0000000000,   3.8822000000,   0.0000000000)
 A3 = (   0.0000000000,   0.0000000000,   3.8822000000)


Analysis of symmetry for initial positions (statically):
=====================================================================
 Subroutine PRICEL returns:
 Original cell was already a primitive cell.
 

 Routine SETGRP: Setting up the symmetry group for a 
 simple cubic supercell.


 Subroutine GETGRP returns: Found 48 space group operations
 (whereof 48 operations were pure point group operations)
 out of a pool of 48 trial point group operations.


The static configuration has the point symmetry O_h .


Analysis of symmetry for dynamics (positions and initial velocities):
=====================================================================
 Subroutine PRICEL returns:
 Original cell was already a primitive cell.
 

 Routine SETGRP: Setting up the symmetry group for a 
 simple cubic supercell.


 Subroutine GETGRP returns: Found 48 space group operations
 (whereof 48 operations were pure point group operations)
 out of a pool of 48 trial point group operations.


The dynamic configuration has the point symmetry O_h .
 
 
 KPOINTS: k-points                                

Automatic generation of k-mesh.
Space group operators:
 irot       det(A)        alpha          n_x          n_y          n_z        tau_x        tau_y        tau_z
    1     1.000000     0.000000     1.000000     0.000000     0.000000     0.000000     0.000000     0.000000
    2    -1.000000     0.000000     1.000000     0.000000     0.000000     0.000000     0.000000     0.000000
    3     1.000000   120.000000    -0.577350    -0.577350    -0.577350     0.000000     0.000000     0.000000
    4    -1.000000   120.000000    -0.577350    -0.577350    -0.577350     0.000000     0.000000     0.000000
    5     1.000000   120.000000     0.577350     0.577350     0.577350     0.000000     0.000000     0.000000
    6    -1.000000   120.000000     0.577350     0.577350     0.577350     0.000000     0.000000     0.000000
    7     1.000000    90.000000     0.000000     0.000000    -1.000000     0.000000     0.000000     0.000000
    8    -1.000000    90.000000     0.000000     0.000000    -1.000000     0.000000     0.000000     0.000000
    9     1.000000   180.000000     0.000000     0.707107     0.707107     0.000000     0.000000     0.000000
   10    -1.000000   180.000000     0.000000     0.707107     0.707107     0.000000     0.000000     0.000000
   11     1.000000    90.000000     0.000000     1.000000     0.000000     0.000000     0.000000     0.000000
   12    -1.000000    90.000000     0.000000     1.000000     0.000000     0.000000     0.000000     0.000000
   13     1.000000   180.000000     0.000000     0.000000     1.000000     0.000000     0.000000     0.000000
   14    -1.000000   180.000000     0.000000     0.000000     1.000000     0.000000     0.000000     0.000000
   15     1.000000   120.000000    -0.577350     0.577350     0.577350     0.000000     0.000000     0.000000
   16    -1.000000   120.000000    -0.577350     0.577350     0.577350     0.000000     0.000000     0.000000
   17     1.000000   120.000000    -0.577350     0.577350    -0.577350     0.000000     0.000000     0.000000
   18    -1.000000   120.000000    -0.577350     0.577350    -0.577350     0.000000     0.000000     0.000000
   19     1.000000    90.000000     0.000000     0.000000     1.000000     0.000000     0.000000     0.000000
   20    -1.000000    90.000000     0.000000     0.000000     1.000000     0.000000     0.000000     0.000000
   21     1.000000    90.000000    -1.000000     0.000000     0.000000     0.000000     0.000000     0.000000
   22    -1.000000    90.000000    -1.000000     0.000000     0.000000     0.000000     0.000000     0.000000
   23     1.000000   180.000000     0.707107     0.000000     0.707107     0.000000     0.000000     0.000000
   24    -1.000000   180.000000     0.707107     0.000000     0.707107     0.000000     0.000000     0.000000
   25     1.000000   120.000000     0.577350    -0.577350     0.577350     0.000000     0.000000     0.000000
   26    -1.000000   120.000000     0.577350    -0.577350     0.577350     0.000000     0.000000     0.000000
   27     1.000000   120.000000    -0.577350    -0.577350     0.577350     0.000000     0.000000     0.000000
   28    -1.000000   120.000000    -0.577350    -0.577350     0.577350     0.000000     0.000000     0.000000
   29     1.000000   180.000000     1.000000     0.000000     0.000000     0.000000     0.000000     0.000000
   30    -1.000000   180.000000     1.000000     0.000000     0.000000     0.000000     0.000000     0.000000
   31     1.000000    90.000000     0.000000    -1.000000     0.000000     0.000000     0.000000     0.000000
   32    -1.000000    90.000000     0.000000    -1.000000     0.000000     0.000000     0.000000     0.000000
   33     1.000000   180.000000     0.707107     0.707107     0.000000     0.000000     0.000000     0.000000
   34    -1.000000   180.000000     0.707107     0.707107     0.000000     0.000000     0.000000     0.000000
   35     1.000000    90.000000     1.000000     0.000000     0.000000     0.000000     0.000000     0.000000
   36    -1.000000    90.000000     1.000000     0.000000     0.000000     0.000000     0.000000     0.000000
   37     1.000000   120.000000     0.577350    -0.577350    -0.577350     0.000000     0.000000     0.000000
   38    -1.000000   120.000000     0.577350    -0.577350    -0.577350     0.000000     0.000000     0.000000
   39     1.000000   180.000000     0.000000     1.000000     0.000000     0.000000     0.000000     0.000000
   40    -1.000000   180.000000     0.000000     1.000000     0.000000     0.000000     0.000000     0.000000
   41     1.000000   120.000000     0.577350     0.577350    -0.577350     0.000000     0.000000     0.000000
   42    -1.000000   120.000000     0.577350     0.577350    -0.577350     0.000000     0.000000     0.000000
   43     1.000000   180.000000     0.000000    -0.707107     0.707107     0.000000     0.000000     0.000000
   44    -1.000000   180.000000     0.000000    -0.707107     0.707107     0.000000     0.000000     0.000000
   45     1.000000   180.000000     0.707107    -0.707107     0.000000     0.000000     0.000000     0.000000
   46    -1.000000   180.000000     0.707107    -0.707107     0.000000     0.000000     0.000000     0.000000
   47     1.000000   180.000000     0.707107     0.000000    -0.707107     0.000000     0.000000     0.000000
   48    -1.000000   180.000000     0.707107     0.000000    -0.707107     0.000000     0.000000     0.000000
 
 Subroutine IBZKPT returns following result:
 ===========================================
 
 Found     35 irreducible k-points:
 
 Following reciprocal coordinates:
            Coordinates               Weight
  0.000000  0.000000  0.000000      1.000000
  0.125000  0.000000  0.000000      6.000000
  0.250000  0.000000  0.000000      6.000000
  0.375000  0.000000  0.000000      6.000000
  0.500000  0.000000  0.000000      3.000000
  0.125000  0.125000  0.000000     12.000000
  0.250000  0.125000  0.000000     24.000000
  0.375000  0.125000  0.000000     24.000000
  0.500000  0.125000  0.000000     12.000000
  0.250000  0.250000  0.000000     12.000000
  0.375000  0.250000  0.000000     24.000000
  0.500000  0.250000  0.000000     12.000000
  0.375000  0.375000  0.000000     12.000000
  0.500000  0.375000  0.000000     12.000000
  0.500000  0.500000  0.000000      3.000000
  0.125000  0.125000  0.125000      8.000000
  0.250000  0.125000  0.125000     24.000000
  0.375000  0.125000  0.125000     24.000000
  0.500000  0.125000  0.125000     12.000000
  0.250000  0.250000  0.125000     24.000000
  0.375000  0.250000  0.125000     48.000000
  0.500000  0.250000  0.125000     24.000000
  0.375000  0.375000  0.125000     24.000000
  0.500000  0.375000  0.125000     24.000000
  0.500000  0.500000  0.125000      6.000000
  0.250000  0.250000  0.250000      8.000000
  0.375000  0.250000  0.250000     24.000000
  0.500000  0.250000  0.250000     12.000000
  0.375000  0.375000  0.250000     24.000000
  0.500000  0.375000  0.250000     24.000000
  0.500000  0.500000  0.250000      6.000000
  0.375000  0.375000  0.375000      8.000000
  0.500000  0.375000  0.375000     12.000000
  0.500000  0.500000  0.375000      6.000000
  0.500000  0.500000  0.500000      1.000000
 
 Following cartesian coordinates:
            Coordinates               Weight
  0.000000  0.000000  0.000000      1.000000
  0.125000  0.000000  0.000000      6.000000
  0.250000  0.000000  0.000000      6.000000
  0.375000  0.000000  0.000000      6.000000
  0.500000  0.000000  0.000000      3.000000
  0.125000  0.125000  0.000000     12.000000
  0.250000  0.125000  0.000000     24.000000
  0.375000  0.125000  0.000000     24.000000
  0.500000  0.125000  0.000000     12.000000
  0.250000  0.250000  0.000000     12.000000
  0.375000  0.250000  0.000000     24.000000
  0.500000  0.250000  0.000000     12.000000
  0.375000  0.375000  0.000000     12.000000
  0.500000  0.375000  0.000000     12.000000
  0.500000  0.500000  0.000000      3.000000
  0.125000  0.125000  0.125000      8.000000
  0.250000  0.125000  0.125000     24.000000
  0.375000  0.125000  0.125000     24.000000
  0.500000  0.125000  0.125000     12.000000
  0.250000  0.250000  0.125000     24.000000
  0.375000  0.250000  0.125000     48.000000
  0.500000  0.250000  0.125000     24.000000
  0.375000  0.375000  0.125000     24.000000
  0.500000  0.375000  0.125000     24.000000
  0.500000  0.500000  0.125000      6.000000
  0.250000  0.250000  0.250000      8.000000
  0.375000  0.250000  0.250000     24.000000
  0.500000  0.250000  0.250000     12.000000
  0.375000  0.375000  0.250000     24.000000
  0.500000  0.375000  0.250000     24.000000
  0.500000  0.500000  0.250000      6.000000
  0.375000  0.375000  0.375000      8.000000
  0.500000  0.375000  0.375000     12.000000
  0.500000  0.500000  0.375000      6.000000
  0.500000  0.500000  0.500000      1.000000
 


--------------------------------------------------------------------------------------------------------




 Dimension of arrays:
   k-points           NKPTS =     35   k-points in BZ     NKDIM =     35   number of bands    NBANDS=     22
   number of dos      NEDOS =    301   number of ions     NIONS =      5
   non local maximal  LDIM  =      6   non local SUM 2l+1 LMDIM =     18
   total plane-waves  NPLWV =   8000
   max r-space proj   IRMAX =      1   max aug-charges    IRDMAX=   9776
   dimension x,y,z NGX =    20 NGY =   20 NGZ =   20
   dimension x,y,z NGXF=    40 NGYF=   40 NGZF=   40
   support grid    NGXF=    40 NGYF=   40 NGZF=   40
   ions per type =               1   1   3
 NGX,Y,Z   is equivalent  to a cutoff of   8.56,  8.56,  8.56 a.u.
 NGXF,Y,Z  is equivalent  to a cutoff of  17.13, 17.13, 17.13 a.u.


 I would recommend the setting:
   dimension x,y,z NGX =    19 NGY =   19 NGZ =   19
 SYSTEM =  unknown system                          
 POSCAR =  CaTiO3                                  

 Startparameter for this run:
   NWRITE =      2    write-flag & timer
   PREC   = normal    normal or accurate (medium, high low for compatibility)
   ISTART =      0    job   : 0-new  1-cont  2-samecut
   ICHARG =      2    charge: 1-file 2-atom 10-const
   ISPIN  =      1    spin polarized calculation?
   LNONCOLLINEAR =      F non collinear calculations
   LSORBIT =      F    spin-orbit coupling
   INIWAV =      1    electr: 0-lowe 1-rand  2-diag
   LASPH  =      F    aspherical Exc in radial PAW
   METAGGA=      F    non-selfconsistent MetaGGA calc.

 Electronic Relaxation 1
   ENCUT  =  400.0 eV  29.40 Ry    5.42 a.u.   6.33  6.33  6.33*2*pi/ulx,y,z
   ENINI  =  400.0     initial cutoff
   ENAUG  =  605.4 eV  augmentation charge cutoff
   NELM   =     60;   NELMIN=  2; NELMDL= -5     # of ELM steps 
   EDIFF  = 0.1E-03   stopping-criterion for ELM
   LREAL  =      F    real-space projection
   NLSPLINE    = F    spline interpolate recip. space projectors
   LCOMPAT=      F    compatible to vasp.4.4
   GGA_COMPAT  = T    GGA compatible to vasp.4.4-vasp.4.6
   LMAXPAW     = -100 max onsite density
   LMAXMIX     =    2 max onsite mixed and CHGCAR
   VOSKOWN=      0    Vosko Wilk Nusair interpolation
   ROPT   =    0.00000   0.00000   0.00000
 Ionic relaxation
   EDIFFG = 0.1E-02   stopping-criterion for IOM
   NSW    =      0    number of steps for IOM
   NBLOCK =      1;   KBLOCK =      1    inner block; outer block 
   IBRION =     -1    ionic relax: 0-MD 1-quasi-New 2-CG
   NFREE  =      0    steps in history (QN), initial steepest desc. (CG)
   ISIF   =      2    stress and relaxation
   IWAVPR =     10    prediction:  0-non 1-charg 2-wave 3-comb
   ISYM   =      2    0-nonsym 1-usesym 2-fastsym
   LCORR  =      T    Harris-Foulkes like correction to forces

   POTIM  = 0.5000    time-step for ionic-motion
   TEIN   =    0.0    initial temperature
   TEBEG  =    0.0;   TEEND  =   0.0 temperature during run
   SMASS  =  -3.00    Nose mass-parameter (am)
   estimated Nose-frequenzy (Omega)   =  0.10E-29 period in steps =****** mass=  -0.344E-27a.u.
   SCALEE = 1.0000    scale energy and forces
   NPACO  =    256;   APACO  = 16.0  distance and # of slots for P.C.
   PSTRESS=    0.0 pullay stress

  Mass of Ions in am
   POMASS =  47.88 40.08 16.00
  Ionic Valenz
   ZVAL   =  10.00  8.00  6.00
  Atomic Wigner-Seitz radii
   RWIGS  =  -1.00 -1.00 -1.00
  virtual crystal weights 
   VCA    =   1.00  1.00  1.00
   NELECT =      36.0000    total number of electrons
   NUPDOWN=      -1.0000    fix difference up-down

 DOS related values:
   EMIN   =  10.00;   EMAX   =-10.00  energy-range for DOS
   EFERMI =   0.00
   ISMEAR =     1;   SIGMA  =   0.20  broadening in eV -4-tet -1-fermi 0-gaus

 Electronic relaxation 2 (details)
   IALGO  =     38    algorithm
   LDIAG  =      T    sub-space diagonalisation (order eigenvalues)
   LSUBROT=      F    optimize rotation matrix (better conditioning)
   TURBO    =      0    0=normal 1=particle mesh
   IRESTART =      0    0=no restart 2=restart with 2 vectors
   NREBOOT  =      0    no. of reboots
   NMIN     =      0    reboot dimension
   EREF     =   0.00    reference energy to select bands
   IMIX   =      4    mixing-type and parameters
     AMIX     =   0.40;   BMIX     =  1.00
     AMIX_MAG =   1.60;   BMIX_MAG =  1.00
     AMIN     =   0.10
     WC   =   100.;   INIMIX=   1;  MIXPRE=   1;  MAXMIX= -45

 Intra band minimization:
   WEIMIN = 0.0000     energy-eigenvalue tresh-hold
   EBREAK =  0.11E-05  absolut break condition
   DEPER  =   0.30     relativ break condition  

   TIME   =   0.40     timestep for ELM

  volume/ion in A,a.u.               =      11.70        78.97
  Fermi-wavevector in a.u.,A,eV,Ry     =   1.392401  2.631257 26.378723  1.938781
  Thomas-Fermi vector in A             =   2.516148
 
 Write flags
   LWAVE  =      T    write WAVECAR
   LCHARG =      T    write CHGCAR
   LVTOT  =      F    write LOCPOT, total local potential
   LVHAR  =      F    write LOCPOT, Hartree potential only
   LELF   =      F    write electronic localiz. function (ELF)
   LORBIT =      0    0 simple, 1 ext, 2 COOP (PROOUT)


 Dipole corrections
   LMONO  =      F    monopole corrections only (constant potential shift)
   LDIPOL =      F    correct potential (dipole corrections)
   IDIPOL =      0    1-x, 2-y, 3-z, 4-all directions 
   EPSILON=  1.0000000 bulk dielectric constant

 Exchange correlation treatment:
   GGA     =    --    GGA type
   LEXCH   =     8    internal setting for exchange type
   VOSKOWN=      0    Vosko Wilk Nusair interpolation
   LHFCALC =     F    Hartree Fock is set to
   LHFONE  =     F    Hartree Fock one center treatment
   AEXX    =    0.0000 exact exchange contribution

 Linear response parameters
   LEPSILON=     F    determine dielectric tensor
   LRPA    =     F    only Hartree local field effects (RPA)
   LNABLA  =     F    use nabla operator in PAW spheres
   LVEL    =     F    velocity operator in full k-point grid
   LINTERFAST=   F  fast interpolation
   KINTER  =     0    interpolate to denser k-point grid
   CSHIFT  =0.1000    complex shift for real part using Kramers Kronig
   OMEGAMAX=  -1.0    maximum frequency
   DEG_THRESHOLD= 0.2000000E-02 threshold for treating states as degnerate
   RTIME   =    0.100 relaxation time in fs

 Orbital magnetization related:
   ORBITALMAG=     F  switch on orbital magnetization
   LCHIMAG   =     F  perturbation theory with respect to B field
   DQ        =  0.001000  dq finite difference perturbation B field



--------------------------------------------------------------------------------------------------------


 Static calculation
 charge density and potential will be updated during run
 non-spin polarized calculation
 Variant of blocked Davidson
 Davidson routine will perform the subspace rotation
 perform sub-space diagonalisation
    after iterative eigenvector-optimisation
 modified Broyden-mixing scheme, WC =      100.0
 initial mixing is a Kerker type mixing with AMIX =  0.4000 and BMIX =      1.0000
 Hartree-type preconditioning will be used
 using additional bands            4
 reciprocal scheme for non local part
 use partial core corrections
 calculate Harris-corrections to forces 
   (improved forces if not selfconsistent)
 use gradient corrections 
 use of overlap-Matrix (Vanderbilt PP)
 Methfessel and Paxton  Order N= 1 SIGMA  =   0.20


--------------------------------------------------------------------------------------------------------


  energy-cutoff  :      400.00
  volume of cell :       58.51
      direct lattice vectors                 reciprocal lattice vectors
     3.882200000  0.000000000  0.000000000     0.257585905  0.000000000  0.000000000
     0.000000000  3.882200000  0.000000000     0.000000000  0.257585905  0.000000000
     0.000000000  0.000000000  3.882200000     0.000000000  0.000000000  0.257585905

  length of vectors
     3.882200000  3.882200000  3.882200000     0.257585905  0.257585905  0.257585905


 
 k-points in units of 2pi/SCALE and weight: k-points                                
   0.00000000  0.00000000  0.00000000       0.002
   0.12500000  0.00000000  0.00000000       0.012
   0.25000000  0.00000000  0.00000000       0.012
   0.37500000  0.00000000  0.00000000       0.012
   0.50000000  0.00000000  0.00000000       0.006
   0.12500000  0.12500000  0.00000000       0.023
   0.25000000  0.12500000  0.00000000       0.047
   0.37500000  0.12500000  0.00000000       0.047
   0.50000000  0.12500000  0.00000000       0.023
   0.25000000  0.25000000  0.00000000       0.023
   0.37500000  0.25000000  0.00000000       0.047
   0.50000000  0.25000000  0.00000000       0.023
   0.37500000  0.37500000  0.00000000       0.023
   0.50000000  0.37500000  0.00000000       0.023
   0.50000000  0.50000000  0.00000000       0.006
   0.12500000  0.12500000  0.12500000       0.016
   0.25000000  0.12500000  0.12500000       0.047
   0.37500000  0.12500000  0.12500000       0.047
   0.50000000  0.12500000  0.12500000       0.023
   0.25000000  0.25000000  0.12500000       0.047
   0.37500000  0.25000000  0.12500000       0.094
   0.50000000  0.25000000  0.12500000       0.047
   0.37500000  0.37500000  0.12500000       0.047
   0.50000000  0.37500000  0.12500000       0.047
   0.50000000  0.50000000  0.12500000       0.012
   0.25000000  0.25000000  0.25000000       0.016
   0.37500000  0.25000000  0.25000000       0.047
   0.50000000  0.25000000  0.25000000       0.023
   0.37500000  0.37500000  0.25000000       0.047
   0.50000000  0.37500000  0.25000000       0.047
   0.50000000  0.50000000  0.25000000       0.012
   0.37500000  0.37500000  0.37500000       0.016
   0.50000000  0.37500000  0.37500000       0.023
   0.50000000  0.50000000  0.37500000       0.012
   0.50000000  0.50000000  0.50000000       0.002
 
 k-points in reciprocal lattice and weights: k-points                                
   0.00000000  0.00000000  0.00000000       0.002
   0.12500000  0.00000000  0.00000000       0.012
   0.25000000  0.00000000  0.00000000       0.012
   0.37500000  0.00000000  0.00000000       0.012
   0.50000000  0.00000000  0.00000000       0.006
   0.12500000  0.12500000  0.00000000       0.023
   0.25000000  0.12500000  0.00000000       0.047
   0.37500000  0.12500000  0.00000000       0.047
   0.50000000  0.12500000  0.00000000       0.023
   0.25000000  0.25000000  0.00000000       0.023
   0.37500000  0.25000000  0.00000000       0.047
   0.50000000  0.25000000  0.00000000       0.023
   0.37500000  0.37500000  0.00000000       0.023
   0.50000000  0.37500000  0.00000000       0.023
   0.50000000  0.50000000  0.00000000       0.006
   0.12500000  0.12500000  0.12500000       0.016
   0.25000000  0.12500000  0.12500000       0.047
   0.37500000  0.12500000  0.12500000       0.047
   0.50000000  0.12500000  0.12500000       0.023
   0.25000000  0.25000000  0.12500000       0.047
   0.37500000  0.25000000  0.12500000       0.094
   0.50000000  0.25000000  0.12500000       0.047
   0.37500000  0.37500000  0.12500000       0.047
   0.50000000  0.37500000  0.12500000       0.047
   0.50000000  0.50000000  0.12500000       0.012
   0.25000000  0.25000000  0.25000000       0.016
   0.37500000  0.25000000  0.25000000       0.047
   0.50000000  0.25000000  0.25000000       0.023
   0.37500000  0.37500000  0.25000000       0.047
   0.50000000  0.37500000  0.25000000       0.047
   0.50000000  0.50000000  0.25000000       0.012
   0.37500000  0.37500000  0.37500000       0.016
   0.50000000  0.37500000  0.37500000       0.023
   0.50000000  0.50000000  0.37500000       0.012
   0.50000000  0.50000000  0.50000000       0.002
 
 position of ions in fractional coordinates (direct lattice) 
   0.00000000  0.00000000  0.00000000
   0.50000000  0.50000000  0.50000000
   0.50000000  0.00000000  0.00000000
   0.00000000  0.50000000  0.00000000
   0.00000000  0.00000000  0.50000000
 
 position of ions in cartesian coordinates  (Angst):
   0.00000000  0.00000000  0.00000000
   1.94110000  1.94110000  1.94110000
   1.94110000  0.00000000  0.00000000
   0.00000000  1.94110000  0.00000000
   0.00000000  0.00000000  1.94110000
 


--------------------------------------------------------------------------------------------------------


 k-point  1 :   0.0000 0.0000 0.0000  plane waves:    1045
 k-point  2 :   0.1250 0.0000 0.0000  plane waves:    1061
 k-point  3 :   0.2500 0.0000 0.0000  plane waves:    1077
 k-point  4 :   0.3750 0.0000 0.0000  plane waves:    1064
 k-point  5 :   0.5000 0.0000 0.0000  plane waves:    1044
 k-point  6 :   0.1250 0.1250 0.0000  plane waves:    1069
 k-point  7 :   0.2500 0.1250 0.0000  plane waves:    1071
 k-point  8 :   0.3750 0.1250 0.0000  plane waves:    1064
 k-point  9 :   0.5000 0.1250 0.0000  plane waves:    1080
 k-point 10 :   0.2500 0.2500 0.0000  plane waves:    1057
 k-point 11 :   0.3750 0.2500 0.0000  plane waves:    1066
 k-point 12 :   0.5000 0.2500 0.0000  plane waves:    1074
 k-point 13 :   0.3750 0.3750 0.0000  plane waves:    1067
 k-point 14 :   0.5000 0.3750 0.0000  plane waves:    1062
 k-point 15 :   0.5000 0.5000 0.0000  plane waves:    1056
 k-point 16 :   0.1250 0.1250 0.1250  plane waves:    1069
 k-point 17 :   0.2500 0.1250 0.1250  plane waves:    1061
 k-point 18 :   0.3750 0.1250 0.1250  plane waves:    1065
 k-point 19 :   0.5000 0.1250 0.1250  plane waves:    1074
 k-point 20 :   0.2500 0.2500 0.1250  plane waves:    1060
 k-point 21 :   0.3750 0.2500 0.1250  plane waves:    1066
 k-point 22 :   0.5000 0.2500 0.1250  plane waves:    1078
 k-point 23 :   0.3750 0.3750 0.1250  plane waves:    1061
 k-point 24 :   0.5000 0.3750 0.1250  plane waves:    1056
 k-point 25 :   0.5000 0.5000 0.1250  plane waves:    1056
 k-point 26 :   0.2500 0.2500 0.2500  plane waves:    1060
 k-point 27 :   0.3750 0.2500 0.2500  plane waves:    1066
 k-point 28 :   0.5000 0.2500 0.2500  plane waves:    1062
 k-point 29 :   0.3750 0.3750 0.2500  plane waves:    1055
 k-point 30 :   0.5000 0.3750 0.2500  plane waves:    1056
 k-point 31 :   0.5000 0.5000 0.2500  plane waves:    1064
 k-point 32 :   0.3750 0.3750 0.3750  plane waves:    1046
 k-point 33 :   0.5000 0.3750 0.3750  plane waves:    1054
 k-point 34 :   0.5000 0.5000 0.3750  plane waves:    1064
 k-point 35 :   0.5000 0.5000 0.5000  plane waves:    1064

 maximum and minimum number of plane-waves per node :      1080     1044

 maximum number of plane-waves:      1080
 maximum index in each direction: 
   IXMAX=    6   IYMAX=    6   IZMAX=    6
   IXMIN=   -6   IYMIN=   -6   IZMIN=   -6

 WARNING: aliasing errors must be expected set NGX to  26 to avoid them
 WARNING: aliasing errors must be expected set NGY to  26 to avoid them
 WARNING: aliasing errors must be expected set NGZ to  26 to avoid them
 aliasing errors are usually negligible using standard VASP settings
 and one can safely disregard these warnings

 serial   3D FFT for wavefunctions
 parallel 3D FFT for charge:
    minimum data exchange during FFTs selected (reduces bandwidth)


 total amount of memory used by VASP on root node    48132. kBytes
========================================================================

   base      :      30000. kBytes
   nonl-proj :      16720. kBytes
   fftplans  :        145. kBytes
   grid      :        538. kBytes
   one-center:         77. kBytes
   wavefun   :        652. kBytes
 
     INWAV:  cpu time    0.00: real time    0.00
 Broyden mixing: mesh for mixing (old mesh)
   NGX = 13   NGY = 13   NGZ = 13
  (NGX  = 40   NGY  = 40   NGZ  = 40)
  gives a total of   2197 points

 initial charge density was supplied:
 charge density of overlapping atoms calculated
 number of electron      36.0000000 magnetization 
 keeping initial charge density in first step


--------------------------------------------------------------------------------------------------------


 Maximum index for augmentation-charges          517 (set IRDMAX)


--------------------------------------------------------------------------------------------------------


 First call to EWALD:  gamma=   0.457
 Maximum number of real-space cells 3x 3x 3
 Maximum number of reciprocal cells 3x 3x 3

 FEWALD executed in parallel
    FEWALD:  cpu time    0.00: real time    0.00


----------------------------------------- Iteration    1(   1)  ---------------------------------------


    POTLOK:  cpu time    0.00: real time    0.00
    SETDIJ:  cpu time    0.00: real time    0.00
     EDDAV:  cpu time    0.24: real time    0.24
       DOS:  cpu time    0.00: real time    0.00
    --------------------------------------------
      LOOP:  cpu time    0.25: real time    0.25

 eigenvalue-minimisations  :  1540
 total energy-change (2. order) : 0.2155710E+03  (-0.1647575E+04)
 number of electron      36.0000000 magnetization 
 augmentation part       36.0000000 magnetization 

 Free energy of the ion-electron system (eV)
  ---------------------------------------------------
  alpha Z        PSCENC =       166.69949767
  Ewald energy   TEWEN  =     -2277.77389946
  -Hartree energ DENC   =      -672.58602360
  -exchange      EXHF   =         0.00000000
  -V(xc)+E(xc)   XCENC  =       135.79004839
  PAW double counting   =      2297.08385515    -2300.16057493
  entropy T*S    EENTRO =        -0.00177809
  eigenvalues    EBANDS =       -85.53290599
  atomic energy  EATOM  =      2952.05274943
  ---------------------------------------------------
  free energy    TOTEN  =       215.57096858 eV

  energy without entropy =      215.57274667  energy(sigma->0) =      215.57156127


--------------------------------------------------------------------------------------------------------




----------------------------------------- Iteration    1(   2)  ---------------------------------------


     EDDAV:  cpu time    0.50: real time    0.50
       DOS:  cpu time    0.00: real time    0.00
    --------------------------------------------
      LOOP:  cpu time    0.50: real time    0.50

 eigenvalue-minimisations  :  2860
 total energy-change (2. order) :-0.2590380E+03  (-0.2543989E+03)
 number of electron      36.0000000 magnetization 
 augmentation part       36.0000000 magnetization 

 Free energy of the ion-electron system (eV)
  ---------------------------------------------------
  alpha Z        PSCENC =       166.69949767
  Ewald energy   TEWEN  =     -2277.77389946
  -Hartree energ DENC   =      -672.58602360
  -exchange      EXHF   =         0.00000000
  -V(xc)+E(xc)   XCENC  =       135.79004839
  PAW double counting   =      2297.08385515    -2300.16057493
  entropy T*S    EENTRO =         0.00231027
  eigenvalues    EBANDS =      -344.57501872
  atomic energy  EATOM  =      2952.05274943
  ---------------------------------------------------
  free energy    TOTEN  =       -43.46705579 eV

  energy without entropy =      -43.46936606  energy(sigma->0) =      -43.46782588


--------------------------------------------------------------------------------------------------------




----------------------------------------- Iteration    1(   3)  ---------------------------------------


     EDDAV:  cpu time    0.21: real time    0.21
       DOS:  cpu time    0.00: real time    0.00
    --------------------------------------------
      LOOP:  cpu time    0.21: real time    0.21

 eigenvalue-minimisations  :  1628
 total energy-change (2. order) :-0.6355042E+01  (-0.6358431E+01)
 number of electron      36.0000000 magnetization 
 augmentation part       36.0000000 magnetization 

 Free energy of the ion-electron system (eV)
  ---------------------------------------------------
  alpha Z        PSCENC =       166.69949767
  Ewald energy   TEWEN  =     -2277.77389946
  -Hartree energ DENC   =      -672.58602360
  -exchange      EXHF   =         0.00000000
  -V(xc)+E(xc)   XCENC  =       135.79004839
  PAW double counting   =      2297.08385515    -2300.16057493
  entropy T*S    EENTRO =         0.00778794
  eigenvalues    EBANDS =      -350.93553831
  atomic energy  EATOM  =      2952.05274943
  ---------------------------------------------------
  free energy    TOTEN  =       -49.82209772 eV

  energy without entropy =      -49.82988566  energy(sigma->0) =      -49.82469370


--------------------------------------------------------------------------------------------------------




----------------------------------------- Iteration    1(   4)  ---------------------------------------


     EDDAV:  cpu time    0.48: real time    0.48
       DOS:  cpu time    0.00: real time    0.00
    --------------------------------------------
      LOOP:  cpu time    0.48: real time    0.48

 eigenvalue-minimisations  :  2860
 total energy-change (2. order) :-0.8883500E-01  (-0.8845356E-01)
 number of electron      36.0000000 magnetization 
 augmentation part       36.0000000 magnetization 

 Free energy of the ion-electron system (eV)
  ---------------------------------------------------
  alpha Z        PSCENC =       166.69949767
  Ewald energy   TEWEN  =     -2277.77389946
  -Hartree energ DENC   =      -672.58602360
  -exchange      EXHF   =         0.00000000
  -V(xc)+E(xc)   XCENC  =       135.79004839
  PAW double counting   =      2297.08385515    -2300.16057493
  entropy T*S    EENTRO =         0.00749972
  eigenvalues    EBANDS =      -351.02408510
  atomic energy  EATOM  =      2952.05274943
  ---------------------------------------------------
  free energy    TOTEN  =       -49.91093272 eV

  energy without entropy =      -49.91843244  energy(sigma->0) =      -49.91343263


--------------------------------------------------------------------------------------------------------




----------------------------------------- Iteration    1(   5)  ---------------------------------------


     EDDAV:  cpu time    0.29: real time    0.29
       DOS:  cpu time    0.00: real time    0.00
    CHARGE:  cpu time    0.01: real time    0.01
    MIXING:  cpu time    0.00: real time    0.00
    --------------------------------------------
      LOOP:  cpu time    0.30: real time    0.30

 eigenvalue-minimisations  :  1804
 total energy-change (2. order) :-0.4914290E-03  (-0.4914517E-03)
 number of electron      36.0000031 magnetization 
 augmentation part       10.9347329 magnetization 

 Broyden mixing:
  rms(total) = 0.30918E+01    rms(broyden)= 0.30915E+01
  rms(prec ) = 0.53632E+01
  weight for this iteration     100.00

 Free energy of the ion-electron system (eV)
  ---------------------------------------------------
  alpha Z        PSCENC =       166.69949767
  Ewald energy   TEWEN  =     -2277.77389946
  -Hartree energ DENC   =      -672.58602360
  -exchange      EXHF   =         0.00000000
  -V(xc)+E(xc)   XCENC  =       135.79004839
  PAW double counting   =      2297.08385515    -2300.16057493
  entropy T*S    EENTRO =         0.00749515
  eigenvalues    EBANDS =      -351.02457196
  atomic energy  EATOM  =      2952.05274943
  ---------------------------------------------------
  free energy    TOTEN  =       -49.91142415 eV

  energy without entropy =      -49.91891930  energy(sigma->0) =      -49.91392253


--------------------------------------------------------------------------------------------------------




----------------------------------------- Iteration    1(   6)  ---------------------------------------


    POTLOK:  cpu time    0.00: real time    0.00
    SETDIJ:  cpu time    0.00: real time    0.00
     EDDAV:  cpu time    0.51: real time    0.51
       DOS:  cpu time    0.00: real time    0.00
    CHARGE:  cpu time    0.01: real time    0.01
    MIXING:  cpu time    0.00: real time    0.00
    --------------------------------------------
      LOOP:  cpu time    0.53: real time    0.53

 eigenvalue-minimisations  :  2948
 total energy-change (2. order) : 0.9287514E+01  (-0.8085291E+01)
 number of electron      35.9999992 magnetization 
 augmentation part       11.1278319 magnetization 

 Broyden mixing:
  rms(total) = 0.10214E+01    rms(broyden)= 0.10206E+01
  rms(prec ) = 0.15876E+01
  weight for this iteration     100.00

 eigenvalues of (default mixing * dielectric matrix)
  average eigenvalue GAMMA=   0.9847
  0.9847

 Free energy of the ion-electron system (eV)
  ---------------------------------------------------
  alpha Z        PSCENC =       166.69949767
  Ewald energy   TEWEN  =     -2277.77389946
  -Hartree energ DENC   =      -692.79852752
  -exchange      EXHF   =         0.00000000
  -V(xc)+E(xc)   XCENC  =       138.30586932
  PAW double counting   =      2775.77389447    -2781.58929223
  entropy T*S    EENTRO =         0.00456902
  eigenvalues    EBANDS =      -321.29877108
  atomic energy  EATOM  =      2952.05274943
  ---------------------------------------------------
  free energy    TOTEN  =       -40.62391037 eV

  energy without entropy =      -40.62847939  energy(sigma->0) =      -40.62543338


--------------------------------------------------------------------------------------------------------




----------------------------------------- Iteration    1(   7)  ---------------------------------------


    POTLOK:  cpu time    0.00: real time    0.00
    SETDIJ:  cpu time    0.00: real time    0.00
     EDDAV:  cpu time    0.30: real time    0.30
       DOS:  cpu time    0.00: real time    0.00
    CHARGE:  cpu time    0.01: real time    0.01
    MIXING:  cpu time    0.00: real time    0.00
    --------------------------------------------
      LOOP:  cpu time    0.31: real time    0.31

 eigenvalue-minimisations  :  2068
 total energy-change (2. order) : 0.4446971E+00  (-0.6877024E+00)
 number of electron      36.0000001 magnetization 
 augmentation part       11.0281595 magnetization 

 Broyden mixing:
  rms(total) = 0.79529E+00    rms(broyden)= 0.79527E+00
  rms(prec ) = 0.10055E+01
  weight for this iteration     100.00

 eigenvalues of (default mixing * dielectric matrix)
  average eigenvalue GAMMA=   1.7413
  0.7412  2.7415

 Free energy of the ion-electron system (eV)
  ---------------------------------------------------
  alpha Z        PSCENC =       166.69949767
  Ewald energy   TEWEN  =     -2277.77389946
  -Hartree energ DENC   =      -684.23744494
  -exchange      EXHF   =         0.00000000
  -V(xc)+E(xc)   XCENC  =       137.53193658
  PAW double counting   =      3003.37017410    -3009.10552929
  entropy T*S    EENTRO =         0.00536021
  eigenvalues    EBANDS =      -328.72205758
  atomic energy  EATOM  =      2952.05274943
  ---------------------------------------------------
  free energy    TOTEN  =       -40.17921329 eV

  energy without entropy =      -40.18457349  energy(sigma->0) =      -40.18100002


--------------------------------------------------------------------------------------------------------




----------------------------------------- Iteration    1(   8)  ---------------------------------------


    POTLOK:  cpu time    0.00: real time    0.00
    SETDIJ:  cpu time    0.00: real time    0.00
     EDDAV:  cpu time    0.41: real time    0.41
       DOS:  cpu time    0.00: real time    0.00
    CHARGE:  cpu time    0.01: real time    0.01
    MIXING:  cpu time    0.00: real time    0.00
    --------------------------------------------
      LOOP:  cpu time    0.42: real time    0.42

 eigenvalue-minimisations  :  2596
 total energy-change (2. order) :-0.1321103E+00  (-0.4717645E+00)
 number of electron      35.9999993 magnetization 
 augmentation part       11.2597859 magnetization 

 Broyden mixing:
  rms(total) = 0.58279E+00    rms(broyden)= 0.58274E+00
  rms(prec ) = 0.10700E+01
  weight for this iteration     100.00

 eigenvalues of (default mixing * dielectric matrix)
  average eigenvalue GAMMA=   1.1981
  2.3312  0.8115  0.4517

 Free energy of the ion-electron system (eV)
  ---------------------------------------------------
  alpha Z        PSCENC =       166.69949767
  Ewald energy   TEWEN  =     -2277.77389946
  -Hartree energ DENC   =      -677.79890905
  -exchange      EXHF   =         0.00000000
  -V(xc)+E(xc)   XCENC  =       137.45195270
  PAW double counting   =      3599.32895138    -3606.25802366
  entropy T*S    EENTRO =         0.00513917
  eigenvalues    EBANDS =      -334.01878177
  atomic energy  EATOM  =      2952.05274943
  ---------------------------------------------------
  free energy    TOTEN  =       -40.31132358 eV

  energy without entropy =      -40.31646275  energy(sigma->0) =      -40.31303664


--------------------------------------------------------------------------------------------------------




----------------------------------------- Iteration    1(   9)  ---------------------------------------


    POTLOK:  cpu time    0.00: real time    0.00
    SETDIJ:  cpu time    0.00: real time    0.00
     EDDAV:  cpu time    0.36: real time    0.36
       DOS:  cpu time    0.00: real time    0.00
    CHARGE:  cpu time    0.01: real time    0.01
    MIXING:  cpu time    0.00: real time    0.00
    --------------------------------------------
      LOOP:  cpu time    0.38: real time    0.38

 eigenvalue-minimisations  :  2398
 total energy-change (2. order) : 0.2197928E+00  (-0.1034737E+00)
 number of electron      35.9999996 magnetization 
 augmentation part       11.1561887 magnetization 

 Broyden mixing:
  rms(total) = 0.17879E+00    rms(broyden)= 0.17877E+00
  rms(prec ) = 0.31535E+00
  weight for this iteration     100.00

 eigenvalues of (default mixing * dielectric matrix)
  average eigenvalue GAMMA=   1.4412
  2.1911  2.1911  0.8426  0.5401

 Free energy of the ion-electron system (eV)
  ---------------------------------------------------
  alpha Z        PSCENC =       166.69949767
  Ewald energy   TEWEN  =     -2277.77389946
  -Hartree energ DENC   =      -680.43111138
  -exchange      EXHF   =         0.00000000
  -V(xc)+E(xc)   XCENC  =       137.49543475
  PAW double counting   =      3513.81981790    -3520.49284281
  entropy T*S    EENTRO =         0.00524783
  eigenvalues    EBANDS =      -331.46642469
  atomic energy  EATOM  =      2952.05274943
  ---------------------------------------------------
  free energy    TOTEN  =       -40.09153076 eV

  energy without entropy =      -40.09677859  energy(sigma->0) =      -40.09328004


--------------------------------------------------------------------------------------------------------




----------------------------------------- Iteration    1(  10)  ---------------------------------------


    POTLOK:  cpu time    0.00: real time    0.00
    SETDIJ:  cpu time    0.00: real time    0.00
     EDDAV:  cpu time    0.49: real time    0.49
       DOS:  cpu time    0.00: real time    0.00
    CHARGE:  cpu time    0.01: real time    0.01
    MIXING:  cpu time    0.00: real time    0.00
    --------------------------------------------
      LOOP:  cpu time    0.51: real time    0.51

 eigenvalue-minimisations  :  2706
 total energy-change (2. order) : 0.2080677E-01  (-0.2858416E-01)
 number of electron      35.9999998 magnetization 
 augmentation part       11.1029123 magnetization 

 Broyden mixing:
  rms(total) = 0.52123E-01    rms(broyden)= 0.52067E-01
  rms(prec ) = 0.81938E-01
  weight for this iteration     100.00

 eigenvalues of (default mixing * dielectric matrix)
  average eigenvalue GAMMA=   1.3538
  2.5664  1.6475  1.1298  0.8706  0.5545

 Free energy of the ion-electron system (eV)
  ---------------------------------------------------
  alpha Z        PSCENC =       166.69949767
  Ewald energy   TEWEN  =     -2277.77389946
  -Hartree energ DENC   =      -683.51667805
  -exchange      EXHF   =         0.00000000
  -V(xc)+E(xc)   XCENC  =       137.62091703
  PAW double counting   =      3482.35700346    -3488.91051765
  entropy T*S    EENTRO =         0.00527375
  eigenvalues    EBANDS =      -328.60507018
  atomic energy  EATOM  =      2952.05274943
  ---------------------------------------------------
  free energy    TOTEN  =       -40.07072399 eV

  energy without entropy =      -40.07599774  energy(sigma->0) =      -40.07248191


--------------------------------------------------------------------------------------------------------




----------------------------------------- Iteration    1(  11)  ---------------------------------------


    POTLOK:  cpu time    0.00: real time    0.00
    SETDIJ:  cpu time    0.00: real time    0.00
     EDDAV:  cpu time    0.37: real time    0.37
       DOS:  cpu time    0.00: real time    0.00
    CHARGE:  cpu time    0.01: real time    0.01
    MIXING:  cpu time    0.00: real time    0.00
    --------------------------------------------
      LOOP:  cpu time    0.38: real time    0.38

 eigenvalue-minimisations  :  2310
 total energy-change (2. order) : 0.8985798E-03  (-0.1112480E-02)
 number of electron      35.9999998 magnetization 
 augmentation part       11.1129411 magnetization 

 Broyden mixing:
  rms(total) = 0.61534E-02    rms(broyden)= 0.61499E-02
  rms(prec ) = 0.83401E-02
  weight for this iteration     100.00

 eigenvalues of (default mixing * dielectric matrix)
  average eigenvalue GAMMA=   1.5418
  2.6544  2.6544  1.5347  0.9835  0.8701  0.5540

 Free energy of the ion-electron system (eV)
  ---------------------------------------------------
  alpha Z        PSCENC =       166.69949767
  Ewald energy   TEWEN  =     -2277.77389946
  -Hartree energ DENC   =      -683.23590749
  -exchange      EXHF   =         0.00000000
  -V(xc)+E(xc)   XCENC  =       137.61860856
  PAW double counting   =      3504.71586774    -3511.30662496
  entropy T*S    EENTRO =         0.00526472
  eigenvalues    EBANDS =      -328.84538163
  atomic energy  EATOM  =      2952.05274943
  ---------------------------------------------------
  free energy    TOTEN  =       -40.06982541 eV

  energy without entropy =      -40.07509013  energy(sigma->0) =      -40.07158032


--------------------------------------------------------------------------------------------------------




----------------------------------------- Iteration    1(  12)  ---------------------------------------


    POTLOK:  cpu time    0.00: real time    0.00
    SETDIJ:  cpu time    0.00: real time    0.00
     EDDAV:  cpu time    0.31: real time    0.31
       DOS:  cpu time    0.00: real time    0.00
    --------------------------------------------
      LOOP:  cpu time    0.31: real time    0.31

 eigenvalue-minimisations  :  2178
 total energy-change (2. order) :-0.4887097E-04  (-0.3254415E-04)
 number of electron      35.9999998 magnetization 
 augmentation part       11.1129411 magnetization 

 Free energy of the ion-electron system (eV)
  ---------------------------------------------------
  alpha Z        PSCENC =       166.69949767
  Ewald energy   TEWEN  =     -2277.77389946
  -Hartree energ DENC   =      -683.34547248
  -exchange      EXHF   =         0.00000000
  -V(xc)+E(xc)   XCENC  =       137.62570244
  PAW double counting   =      3497.11963547    -3503.69378401
  entropy T*S    EENTRO =         0.00526127
  eigenvalues    EBANDS =      -328.75956462
  atomic energy  EATOM  =      2952.05274943
  ---------------------------------------------------
  free energy    TOTEN  =       -40.06987428 eV

  energy without entropy =      -40.07513555  energy(sigma->0) =      -40.07162804


--------------------------------------------------------------------------------------------------------




 average (electrostatic) potential at core
  the test charge radii are     1.0397  1.2658  0.7215
  (the norm of the test charge is              1.0000)
       1 -53.1322       2 -45.6259       3 -70.0822       4 -70.0822       5 -70.0822
 
 
 
 E-fermi :   3.7794     XC(G=0): -11.0127     alpha+bet :-13.2781


 k-point     1 :       0.0000    0.0000    0.0000
  band No.  band energies     occupation 
      1     -29.0224      2.00000
      2     -29.0224      2.00000
      3     -29.0224      2.00000
      4     -16.5932      2.00000
      5     -16.5932      2.00000
      6     -16.5932      2.00000
      7     -13.8673      2.00000
      8     -12.7690      2.00000
      9     -12.7690      2.00000
     10       0.6585      2.00000
     11       0.6585      2.00000
     12       0.6585      2.00000
     13       2.5843      2.00000
     14       2.5843      2.00000
     15       2.5843      2.00000
     16       3.2972      2.00342
     17       3.2972      2.00342
     18       3.2972      2.00342
     19       5.5842     -0.00000
     20       5.5842     -0.00000
     21       5.5842     -0.00000
     22       8.0612     -0.00000

 k-point     2 :       0.1250    0.0000    0.0000
  band No.  band energies     occupation 
      1     -29.0336      2.00000
      2     -29.0219      2.00000
      3     -29.0219      2.00000
      4     -16.6295      2.00000
      5     -16.5916      2.00000
      6     -16.5916      2.00000
      7     -13.7739      2.00000
      8     -12.7656      2.00000
      9     -12.7254      2.00000
     10       0.4796      2.00000
     11       0.6659      2.00000
     12       0.6659      2.00000
     13       2.3710      2.00000
     14       2.3710      2.00000
     15       2.4465      2.00000
     16       2.7901      2.00000
     17       3.2104      2.00043
     18       3.2104      2.00043
     19       5.6091     -0.00000
     20       5.9418     -0.00000
     21       5.9418     -0.00000
     22       8.0776     -0.00000

 k-point     3 :       0.2500    0.0000    0.0000
  band No.  band energies     occupation 
      1     -29.0605      2.00000
      2     -29.0208      2.00000
      3     -29.0208      2.00000
      4     -16.7128      2.00000
      5     -16.5879      2.00000
      6     -16.5879      2.00000
      7     -13.5501      2.00000
      8     -12.7532      2.00000
      9     -12.6151      2.00000
     10       0.0308      2.00000
     11       0.7033      2.00000
     12       0.7033      2.00000
     13       1.8810      2.00000
     14       1.8917      2.00000
     15       1.8917      2.00000
     16       2.1596      2.00000
     17       3.1008      2.00002
     18       3.1008      2.00002
     19       5.6712     -0.00000
     20       6.6617     -0.00000
     21       6.6617     -0.00000
     22       8.0921     -0.00000

 k-point     4 :       0.3750    0.0000    0.0000
  band No.  band energies     occupation 
      1     -29.0871      2.00000
      2     -29.0197      2.00000
      3     -29.0197      2.00000
      4     -16.7908      2.00000
      5     -16.5842      2.00000
      6     -16.5842      2.00000
      7     -13.3262      2.00000
      8     -12.7387      2.00000
      9     -12.4944      2.00000
     10      -0.4664      2.00000
     11       0.8017      2.00000
     12       0.8017      2.00000
     13       1.2309      2.00000
     14       1.4297      2.00000
     15       1.4297      2.00000
     16       1.9062      2.00000
     17       3.0370      2.00000
     18       3.0370      2.00000
     19       5.7362     -0.00000
     20       7.2944     -0.00000
     21       7.2944     -0.00000
     22       8.0995     -0.00000

 k-point     5 :       0.5000    0.0000    0.0000
  band No.  band energies     occupation 
      1     -29.0981      2.00000
      2     -29.0192      2.00000
      3     -29.0192      2.00000
      4     -16.8216      2.00000
      5     -16.5827      2.00000
      6     -16.5827      2.00000
      7     -13.2318      2.00000
      8     -12.7336      2.00000
      9     -12.4398      2.00000
     10      -0.6875      2.00000
     11       0.9216      2.00000
     12       0.9216      2.00000
     13       1.0208      2.00000
     14       1.1746      2.00000
     15       1.1746      2.00000
     16       1.8057      2.00000
     17       3.0192      2.00000
     18       3.0192      2.00000
     19       5.7640     -0.00000
     20       7.5459     -0.00000
     21       7.5459     -0.00000
     22       8.1018     -0.00000

 k-point     6 :       0.1250    0.1250    0.0000
  band No.  band energies     occupation 
      1     -29.0332      2.00000
      2     -29.0331      2.00000
      3     -29.0215      2.00000
      4     -16.6380      2.00000
      5     -16.6129      2.00000
      6     -16.5900      2.00000
      7     -13.6864      2.00000
      8     -12.7425      2.00000
      9     -12.7015      2.00000
     10       0.3691      2.00000
     11       0.5960      2.00000
     12       0.6729      2.00000
     13       1.9251      2.00000
     14       2.2118      2.00000
     15       2.5789      2.00000
     16       2.6777      2.00000
     17       2.8911      2.00000
     18       3.0811      2.00001
     19       5.9120     -0.00000
     20       6.0076     -0.00000
     21       6.1606     -0.00000
     22       8.3081     -0.00000

 k-point     7 :       0.2500    0.1250    0.0000
  band No.  band energies     occupation 
      1     -29.0601      2.00000
      2     -29.0321      2.00000
      3     -29.0204      2.00000
      4     -16.7066      2.00000
      5     -16.6128      2.00000
      6     -16.5862      2.00000
      7     -13.4767      2.00000
      8     -12.7236      2.00000
      9     -12.5969      2.00000
     10      -0.0171      2.00000
     11       0.5238      2.00000
     12       0.7065      2.00000
     13       1.3041      2.00000
     14       1.8059      2.00000
     15       2.0001      2.00000
     16       2.5570      2.00000
     17       2.7464      2.00000
     18       2.9172      2.00000
     19       6.0010     -0.00000
     20       6.6755     -0.00000
     21       6.7234     -0.00000
     22       8.4033     -0.00000

 k-point     8 :       0.3750    0.1250    0.0000
  band No.  band energies     occupation 
      1     -29.0868      2.00000
      2     -29.0310      2.00000
      3     -29.0193      2.00000
      4     -16.7779      2.00000
      5     -16.6061      2.00000
      6     -16.5824      2.00000
      7     -13.2708      2.00000
      8     -12.7088      2.00000
      9     -12.4737      2.00000
     10      -0.4772      2.00000
     11       0.3927      2.00000
     12       0.7992      2.00000
     13       0.8610      2.00000
     14       1.3779      2.00000
     15       1.5796      2.00000
     16       2.4181      2.00000
     17       2.6683      2.00000
     18       2.8295      2.00000
     19       6.0552     -0.00000
     20       7.2968     -0.00000
     21       7.2988     -0.00000
     22       8.4233     -0.00000

 k-point     9 :       0.5000    0.1250    0.0000
  band No.  band energies     occupation 
      1     -29.0978      2.00000
      2     -29.0306      2.00000
      3     -29.0188      2.00000
      4     -16.8066      2.00000
      5     -16.6031      2.00000
      6     -16.5808      2.00000
      7     -13.1892      2.00000
      8     -12.7029      2.00000
      9     -12.4180      2.00000
     10      -0.6916      2.00000
     11       0.2868      2.00000
     12       0.7635      2.00000
     13       0.9189      2.00000
     14       1.1294      2.00000
     15       1.4441      2.00000
     16       2.3405      2.00000
     17       2.6438      2.00000
     18       2.8005      2.00000
     19       6.0781     -0.00000
     20       7.5405     -0.00000
     21       7.5429     -0.00000
     22       8.4259     -0.00000

 k-point    10 :       0.2500    0.2500    0.0000
  band No.  band energies     occupation 
      1     -29.0592      2.00000
      2     -29.0591      2.00000
      3     -29.0193      2.00000
      4     -16.7047      2.00000
      5     -16.6585      2.00000
      6     -16.5821      2.00000
      7     -13.3105      2.00000
      8     -12.6572      2.00000
      9     -12.5296      2.00000
     10      -0.2370      2.00000
     11       0.2385      2.00000
     12       0.6182      2.00000
     13       0.7292      2.00000
     14       1.5589      2.00000
     15       1.9636      2.00000
     16       2.1666      2.00000
     17       2.6310      2.00000
     18       2.9598      2.00000
     19       6.6173     -0.00000
     20       6.7698     -0.00000
     21       7.0050     -0.00000
     22       8.7218     -0.00000

 k-point    11 :       0.3750    0.2500    0.0000
  band No.  band energies     occupation 
      1     -29.0859      2.00000
      2     -29.0582      2.00000
      3     -29.0182      2.00000
      4     -16.7475      2.00000
      5     -16.6575      2.00000
      6     -16.5780      2.00000
      7     -13.1709      2.00000
      8     -12.5973      2.00000
      9     -12.4205      2.00000
     10      -0.5526      2.00000
     11      -0.1952      2.00000
     12       0.2777      2.00000
     13       0.7995      2.00000
     14       1.2430      2.00000
     15       1.7006      2.00000
     16       2.1166      2.00000
     17       2.4625      2.00000
     18       3.0597      2.00000
     19       6.7154     -0.00000
     20       7.3060     -0.00000
     21       7.4186     -0.00000
     22       8.8293     -0.00000

 k-point    12 :       0.5000    0.2500    0.0000
  band No.  band energies     occupation 
      1     -29.0969      2.00000
      2     -29.0578      2.00000
      3     -29.0178      2.00000
      4     -16.7701      2.00000
      5     -16.6517      2.00000
      6     -16.5762      2.00000
      7     -13.1235      2.00000
      8     -12.5729      2.00000
      9     -12.3609      2.00000
     10      -0.7007      2.00000
     11      -0.4449      2.00000
     12       0.2418      2.00000
     13       0.9108      2.00000
     14       1.0284      2.00000
     15       1.6056      2.00000
     16       2.1165      2.00000
     17       2.4119      2.00000
     18       3.0660      2.00001
     19       6.7314     -0.00000
     20       7.5427     -0.00000
     21       7.6209     -0.00000
     22       8.8537     -0.00000

 k-point    13 :       0.3750    0.3750    0.0000
  band No.  band energies     occupation 
      1     -29.0850      2.00000
      2     -29.0850      2.00000
      3     -29.0172      2.00000
      4     -16.7234      2.00000
      5     -16.7015      2.00000
      6     -16.5735      2.00000
      7     -13.1190      2.00000
      8     -12.4355      2.00000
      9     -12.3554      2.00000
     10      -0.8133      2.00000
     11      -0.4717      2.00000
     12      -0.3105      2.00000
     13       0.8272      2.00000
     14       1.0680      2.00000
     15       1.7694      2.00000
     16       1.8850      2.00000
     17       2.2029      2.00000
     18       3.4093      2.02513
     19       7.2769     -0.00000
     20       7.3428     -0.00000
     21       7.6776     -0.00000
     22       8.9917     -0.00000

 k-point    14 :       0.5000    0.3750    0.0000
  band No.  band energies     occupation 
      1     -29.0961      2.00000
      2     -29.0847      2.00000
      3     -29.0167      2.00000
      4     -16.7336      2.00000
      5     -16.6992      2.00000
      6     -16.5717      2.00000
      7     -13.1082      2.00000
      8     -12.3762      2.00000
      9     -12.3041      2.00000
     10      -0.9290      2.00000
     11      -0.7432      2.00000
     12      -0.3686      2.00000
     13       0.8996      2.00000
     14       0.9320      2.00000
     15       1.7504      2.00000
     16       1.8732      2.00000
     17       2.1173      2.00000
     18       3.5090      2.06674
     19       7.3141     -0.00000
     20       7.5445     -0.00000
     21       7.8239     -0.00000
     22       9.0291     -0.00000

 k-point    15 :       0.5000    0.5000    0.0000
  band No.  band energies     occupation 
      1     -29.0957      2.00000
      2     -29.0957      2.00000
      3     -29.0163      2.00000
      4     -16.7185      2.00000
      5     -16.7185      2.00000
      6     -16.5698      2.00000
      7     -13.1106      2.00000
      8     -12.2807      2.00000
      9     -12.2807      2.00000
     10      -1.0974      2.00000
     11      -0.8398      2.00000
     12      -0.5539      2.00000
     13       0.8927      2.00000
     14       0.8927      2.00000
     15       1.8112      2.00000
     16       1.8112      2.00000
     17       2.0130      2.00000
     18       3.6453      1.89835
     19       7.5453     -0.00000
     20       7.5453     -0.00000
     21       7.9445     -0.00000
     22       9.0664     -0.00000

 k-point    16 :       0.1250    0.1250    0.1250
  band No.  band energies     occupation 
      1     -29.0327      2.00000
      2     -29.0327      2.00000
      3     -29.0327      2.00000
      4     -16.6442      2.00000
      5     -16.6103      2.00000
      6     -16.6103      2.00000
      7     -13.6026      2.00000
      8     -12.6991      2.00000
      9     -12.6991      2.00000
     10       0.2620      2.00000
     11       0.5966      2.00000
     12       0.5966      2.00000
     13       1.8239      2.00000
     14       1.8239      2.00000
     15       2.3929      2.00000
     16       2.7343      2.00000
     17       2.8699      2.00000
     18       2.8699      2.00000
     19       6.1149     -0.00000
     20       6.2155     -0.00000
     21       6.2155     -0.00000
     22       8.7852     -0.00000

 k-point    17 :       0.2500    0.1250    0.1250
  band No.  band energies     occupation 
      1     -29.0597      2.00000
      2     -29.0317      2.00000
      3     -29.0316      2.00000
      4     -16.7009      2.00000
      5     -16.6154      2.00000
      6     -16.6040      2.00000
      7     -13.4019      2.00000
      8     -12.6917      2.00000
      9     -12.5868      2.00000
     10      -0.0703      2.00000
     11       0.4654      2.00000
     12       0.5945      2.00000
     13       1.2642      2.00000
     14       1.3226      2.00000
     15       2.0876      2.00000
     16       2.5815      2.00000
     17       2.7168      2.00000
     18       2.7988      2.00000
     19       6.2255     -0.00000
     20       6.7385     -0.00000
     21       6.7541     -0.00000
     22       8.8206     -0.00000

 k-point    18 :       0.3750    0.1250    0.1250
  band No.  band energies     occupation 
      1     -29.0864      2.00000
      2     -29.0307      2.00000
      3     -29.0304      2.00000
      4     -16.7660      2.00000
      5     -16.6087      2.00000
      6     -16.5977      2.00000
      7     -13.2068      2.00000
      8     -12.6857      2.00000
      9     -12.4587      2.00000
     10      -0.4883      2.00000
     11       0.2796      2.00000
     12       0.5756      2.00000
     13       0.7508      2.00000
     14       0.9913      2.00000
     15       2.0391      2.00000
     16       2.3488      2.00000
     17       2.5658      2.00000
     18       2.7443      2.00000
     19       6.2839     -0.00000
     20       7.3044     -0.00000
     21       7.3220     -0.00000
     22       8.8199     -0.00000

 k-point    19 :       0.5000    0.1250    0.1250
  band No.  band energies     occupation 
      1     -29.0974      2.00000
      2     -29.0303      2.00000
      3     -29.0300      2.00000
      4     -16.7926      2.00000
      5     -16.6057      2.00000
      6     -16.5951      2.00000
      7     -13.1298      2.00000
      8     -12.6833      2.00000
      9     -12.3993      2.00000
     10      -0.6927      2.00000
     11       0.1605      2.00000
     12       0.5530      2.00000
     13       0.6316      2.00000
     14       0.8915      2.00000
     15       2.0505      2.00000
     16       2.2410      2.00000
     17       2.4881      2.00000
     18       2.7227      2.00000
     19       6.3075     -0.00000
     20       7.5383     -0.00000
     21       7.5661     -0.00000
     22       8.8148     -0.00000

 k-point    20 :       0.2500    0.2500    0.1250
  band No.  band energies     occupation 
      1     -29.0587      2.00000
      2     -29.0587      2.00000
      3     -29.0306      2.00000
      4     -16.6987      2.00000
      5     -16.6537      2.00000
      6     -16.6017      2.00000
      7     -13.2312      2.00000
      8     -12.6293      2.00000
      9     -12.5337      2.00000
     10      -0.2737      2.00000
     11       0.2314      2.00000
     12       0.5044      2.00000
     13       0.6604      2.00000
     14       1.1233      2.00000
     15       1.6742      2.00000
     16       2.5234      2.00000
     17       2.6039      2.00000
     18       2.9891      2.00000
     19       6.7250     -0.00000
     20       6.8494     -0.00000
     21       7.0348     -0.00000
     22       9.2484      0.00000

 k-point    21 :       0.3750    0.2500    0.1250
  band No.  band energies     occupation 
      1     -29.0854      2.00000
      2     -29.0577      2.00000
      3     -29.0295      2.00000
      4     -16.7378      2.00000
      5     -16.6533      2.00000
      6     -16.5954      2.00000
      7     -13.0852      2.00000
      8     -12.5915      2.00000
      9     -12.4195      2.00000
     10      -0.5565      2.00000
     11      -0.1766      2.00000
     12       0.2563      2.00000
     13       0.4820      2.00000
     14       0.8230      2.00000
     15       1.6566      2.00000
     16       2.3402      2.00000
     17       2.5453      2.00000
     18       3.0797      2.00001
     19       6.8287     -0.00000
     20       7.3466     -0.00000
     21       7.4469     -0.00000
     22       9.3351      0.00000

 k-point    22 :       0.5000    0.2500    0.1250
  band No.  band energies     occupation 
      1     -29.0965      2.00000
      2     -29.0572      2.00000
      3     -29.0290      2.00000
      4     -16.7588      2.00000
      5     -16.6479      2.00000
      6     -16.5927      2.00000
[...]
      7     -13.0090      2.00000
      8     -12.3884      2.00000
      9     -12.3109      2.00000
     10      -0.8692      2.00000
     11      -0.7374      2.00000
     12      -0.3662      2.00000
     13       0.4507      2.00000
     14       0.5270      2.00000
     15       1.5458      2.00000
     16       2.2917      2.00000
     17       2.3766      2.00000
     18       3.5215      2.06975
     19       7.3862     -0.00000
     20       7.6011     -0.00000
     21       7.8563     -0.00000
     22       9.4903      0.00000

 k-point    25 :       0.5000    0.5000    0.1250
  band No.  band energies     occupation 
      1     -29.0952      2.00000
      2     -29.0952      2.00000
      3     -29.0275      2.00000
      4     -16.7112      2.00000
      5     -16.7112      2.00000
      6     -16.5842      2.00000
      7     -13.0099      2.00000
      8     -12.2932      2.00000
      9     -12.2932      2.00000
     10      -1.0282      2.00000
     11      -0.8323      2.00000
     12      -0.5518      2.00000
     13       0.4521      2.00000
     14       0.4521      2.00000
     15       1.5279      2.00000
     16       2.3160      2.00000
     17       2.3160      2.00000
     18       3.6580      1.84610
     19       7.6104     -0.00000
     20       7.6104     -0.00000
     21       7.9793     -0.00000
     22       9.4764      0.00000

 k-point    26 :       0.2500    0.2500    0.2500
  band No.  band energies     occupation 
      1     -29.0579      2.00000
      2     -29.0574      2.00000
      3     -29.0574      2.00000
      4     -16.6909      2.00000
      5     -16.6419      2.00000
      6     -16.6419      2.00000
      7     -13.0487      2.00000
      8     -12.5434      2.00000
      9     -12.5434      2.00000
     10      -0.3992      2.00000
     11       0.1781      2.00000
     12       0.1781      2.00000
     13       0.6328      2.00000
     14       0.6328      2.00000
     15       0.8683      2.00000
     16       2.7507      2.00000
     17       2.7507      2.00000
     18       3.1263      2.00004
     19       7.0469     -0.00000
     20       7.1280     -0.00000
     21       7.1280     -0.00000
     22       9.8292      0.00000

 k-point    27 :       0.3750    0.2500    0.2500
  band No.  band energies     occupation 
      1     -29.0843      2.00000
      2     -29.0568      2.00000
      3     -29.0562      2.00000
      4     -16.7146      2.00000
      5     -16.6498      2.00000
      6     -16.6300      2.00000
      7     -12.8969      2.00000
      8     -12.5533      2.00000
      9     -12.4135      2.00000
     10      -0.5901      2.00000
     11      -0.1805      2.00000
     12       0.0083      2.00000
     13       0.1159      2.00000
     14       0.4401      2.00000
     15       0.8247      2.00000
     16       2.7897      2.00000
     17       2.8338      2.00000
     18       3.2144      2.00048
     19       7.1641     -0.00000
     20       7.4967     -0.00000
     21       7.5288     -0.00000
     22       9.9816      0.00000

 k-point    28 :       0.5000    0.2500    0.2500
  band No.  band energies     occupation 
      1     -29.0953      2.00000
      2     -29.0564      2.00000
      3     -29.0557      2.00000
      4     -16.7316      2.00000
      5     -16.6457      2.00000
      6     -16.6250      2.00000
      7     -12.8464      2.00000
      8     -12.5575      2.00000
      9     -12.3413      2.00000
     10      -0.6989      2.00000
     11      -0.4382      2.00000
     12      -0.0893      2.00000
     13       0.0352      2.00000
     14       0.4134      2.00000
     15       0.8530      2.00000
     16       2.8001      2.00000
     17       2.8487      2.00000
     18       3.2215      2.00058
     19       7.1939     -0.00000
     20       7.6855     -0.00000
     21       7.7333     -0.00000
     22      10.0151      0.00000

 k-point    29 :       0.3750    0.3750    0.2500
  band No.  band energies     occupation 
      1     -29.0833      2.00000
      2     -29.0832      2.00000
      3     -29.0553      2.00000
      4     -16.6964      2.00000
      5     -16.6784      2.00000
      6     -16.6270      2.00000
      7     -12.7811      2.00000
      8     -12.4441      2.00000
      9     -12.3893      2.00000
     10      -0.7051      2.00000
     11      -0.3989      2.00000
     12      -0.3083      2.00000
     13      -0.0575      2.00000
     14       0.0621      2.00000
     15       0.5699      2.00000
     16       2.9298      2.00000
     17       2.9856      2.00000
     18       3.4624      2.04754
     19       7.5541     -0.00000
     20       7.5966     -0.00000
     21       7.7857     -0.00000
     22       9.8431      0.00000

 k-point    30 :       0.5000    0.3750    0.2500
  band No.  band energies     occupation 
      1     -29.0942      2.00000
      2     -29.0828      2.00000
      3     -29.0548      2.00000
      4     -16.7045      2.00000
      5     -16.6774      2.00000
      6     -16.6228      2.00000
      7     -12.7613      2.00000
      8     -12.4171      2.00000
      9     -12.3285      2.00000
     10      -0.7297      2.00000
     11      -0.7261      2.00000
     12      -0.3665      2.00000
     13      -0.1334      2.00000
     14       0.0193      2.00000
     15       0.5603      2.00000
     16       2.9757      2.00000
     17       3.0049      2.00000
     18       3.5567      2.06648
     19       7.6025     -0.00000
     20       7.7698     -0.00000
     21       7.9361     -0.00000
     22       9.7712      0.00000

 k-point    31 :       0.5000    0.5000    0.2500
  band No.  band energies     occupation 
      1     -29.0938      2.00000
      2     -29.0938      2.00000
      3     -29.0543      2.00000
      4     -16.6932      2.00000
      5     -16.6932      2.00000
      6     -16.6189      2.00000
      7     -12.7565      2.00000
      8     -12.3240      2.00000
      9     -12.3240      2.00000
     10      -0.8590      2.00000
     11      -0.8203      2.00000
     12      -0.5462      2.00000
     13      -0.1094      2.00000
     14      -0.1094      2.00000
     15       0.5328      2.00000
     16       3.0298      2.00000
     17       3.0298      2.00000
     18       3.6895      1.68221
     19       7.7967     -0.00000
     20       7.7967     -0.00000
     21       8.0642     -0.00000
     22       9.6150      0.00000

 k-point    32 :       0.3750    0.3750    0.3750
  band No.  band energies     occupation 
      1     -29.0822      2.00000
      2     -29.0818      2.00000
      3     -29.0818      2.00000
      4     -16.6796      2.00000
      5     -16.6619      2.00000
      6     -16.6619      2.00000
      7     -12.5605      2.00000
      8     -12.4132      2.00000
      9     -12.4132      2.00000
     10      -0.6983      2.00000
     11      -0.3787      2.00000
     12      -0.3787      2.00000
     13      -0.3538      2.00000
     14      -0.2342      2.00000
     15      -0.2342      2.00000
     16       3.3317      2.00687
     17       3.3317      2.00687
     18       3.5516      2.06837
     19       7.8293     -0.00000
     20       7.8769     -0.00000
     21       7.8769     -0.00000
     22       9.7647      0.00000

 k-point    33 :       0.5000    0.3750    0.3750
  band No.  band energies     occupation 
      1     -29.0929      2.00000
      2     -29.0816      2.00000
      3     -29.0812      2.00000
      4     -16.6837      2.00000
      5     -16.6652      2.00000
      6     -16.6550      2.00000
      7     -12.5185      2.00000
      8     -12.4241      2.00000
      9     -12.3466      2.00000
     10      -0.7561      2.00000
     11      -0.6153      2.00000
     12      -0.4812      2.00000
     13      -0.4379      2.00000
     14      -0.2591      2.00000
     15      -0.2552      2.00000
     16       3.4021      2.02269
     17       3.4673      2.04981
     18       3.6229      1.97073
     19       7.8933     -0.00000
     20       7.9951     -0.00000
     21       8.0334     -0.00000
     22       9.6790      0.00000

 k-point    34 :       0.5000    0.5000    0.3750
  band No.  band energies     occupation 
      1     -29.0924      2.00000
      2     -29.0924      2.00000
      3     -29.0809      2.00000
      4     -16.6751      2.00000
      5     -16.6751      2.00000
      6     -16.6533      2.00000
      7     -12.4856      2.00000
      8     -12.3547      2.00000
      9     -12.3547      2.00000
     10      -0.8451      2.00000
     11      -0.6848      2.00000
     12      -0.5405      2.00000
     13      -0.4820      2.00000
     14      -0.4820      2.00000
     15      -0.2901      2.00000
     16       3.5499      2.06888
     17       3.5499      2.06888
     18       3.7220      1.46372
     19       8.0478     -0.00000
     20       8.0478     -0.00000
     21       8.1509     -0.00000
     22       9.4942      0.00000

 k-point    35 :       0.5000    0.5000    0.5000
  band No.  band energies     occupation 
      1     -29.0918      2.00000
      2     -29.0918      2.00000
      3     -29.0918      2.00000
      4     -16.6674      2.00000
      5     -16.6674      2.00000
      6     -16.6674      2.00000
      7     -12.3676      2.00000
      8     -12.3676      2.00000
      9     -12.3676      2.00000
     10      -0.9245      2.00000
     11      -0.6107      2.00000
     12      -0.6107      2.00000
     13      -0.6107      2.00000
     14      -0.5382      2.00000
     15      -0.5382      2.00000
     16       3.7359      1.35806
     17       3.7359      1.35806
     18       3.7359      1.35806
     19       8.1879     -0.00000
     20       8.1879     -0.00000
     21       8.1879     -0.00000
     22       9.4381      0.00000


--------------------------------------------------------------------------------------------------------


 soft charge-density along one line, spin component           1
         0         1         2         3         4         5         6         7         8         9
 total charge-density along one line
 
 pseudopotential strength for first ion, spin component:           1
-30.223   0.000  -0.000   7.093  -0.000   0.000  -0.000  -0.000
  0.000 -30.223  -0.000  -0.000   7.093   0.000   0.000   0.000
 -0.000  -0.000 -30.223   0.000   0.000   7.093   0.000   0.000
  7.093  -0.000   0.000   3.761   0.000  -0.000   0.000   0.000
 -0.000   7.093   0.000   0.000   3.761  -0.000  -0.000  -0.000
  0.000   0.000   7.093  -0.000  -0.000   3.761  -0.000  -0.000
 -0.000   0.000   0.000   0.000  -0.000  -0.000  -3.663  -0.000
 -0.000   0.000   0.000   0.000  -0.000  -0.000  -0.000  -3.663
 -0.000  -0.000   0.000   0.000   0.000   0.000   0.000   0.000
  0.000  -0.000  -0.000  -0.000   0.000   0.000   0.000  -0.000
 -0.000  -0.000  -0.000   0.000   0.000   0.000   0.000  -0.000
 -0.000   0.000   0.000   0.000  -0.000  -0.000  -3.843  -0.000
 -0.000   0.000   0.000   0.000  -0.000  -0.000  -0.000  -3.843
 -0.000  -0.000   0.000   0.000   0.000  -0.000   0.000   0.000
  0.000   0.000  -0.000  -0.000   0.000   0.000   0.000  -0.000
 -0.000  -0.000  -0.000   0.000   0.000  -0.000   0.000  -0.000
 -0.000   0.000  -0.000   0.000  -0.000   0.000   0.000  -0.000
 -0.000   0.000   0.000  -0.000   0.000   0.000   0.000  -0.000
 total augmentation occupancy for first ion, spin component:           1
  1.975   0.000  -0.000  -0.067   0.000   0.000   0.000   0.000   0.000   0.000   0.000   0.000   0.000   0.000   0.000   0.000
 -0.000   1.975  -0.000  -0.000  -0.067  -0.000   0.000   0.000   0.000   0.000   0.000   0.000   0.000   0.000   0.000   0.000
  0.000   0.000   1.975   0.000   0.000  -0.067   0.000   0.000   0.000   0.000   0.000   0.000   0.000   0.000   0.000   0.000
 -0.067   0.000  -0.000   0.339  -0.000   0.000   0.000   0.000   0.000   0.000   0.000   0.000   0.000   0.000   0.000   0.000
 -0.000  -0.067  -0.000  -0.000   0.339   0.000   0.000   0.000   0.000   0.000   0.000   0.000   0.000   0.000   0.000   0.000
  0.000   0.000  -0.067   0.000   0.000   0.339   0.000   0.000   0.000   0.000   0.000   0.000   0.000   0.000   0.000   0.000
  0.000   0.000   0.000   0.000   0.000   0.000   3.671  -0.000   0.000   0.000  -0.000  -2.281   0.000  -0.000   0.000   0.000
  0.000   0.000   0.000   0.000   0.000   0.000   0.000   3.671   0.000  -0.000   0.000  -0.000  -2.281   0.000  -0.000   0.000
  0.000   0.000   0.000   0.000   0.000   0.000  -0.000  -0.000  13.353   0.000   0.000   0.000  -0.000  -9.261  -0.000   0.000
  0.000   0.000   0.000   0.000   0.000   0.000   0.000   0.000   0.000   3.671   0.000   0.000   0.000   0.000  -2.281   0.000
  0.000   0.000   0.000   0.000   0.000   0.000   0.000   0.000   0.000  -0.000  13.353  -0.000  -0.000  -0.000   0.000  -9.261
  0.000   0.000   0.000   0.000   0.000   0.000  -2.281  -0.000   0.000   0.000  -0.000   1.425  -0.000   0.000   0.000  -0.000
  0.000   0.000   0.000   0.000   0.000   0.000  -0.000  -2.281   0.000   0.000  -0.000  -0.000   1.425   0.000   0.000   0.000
  0.000   0.000   0.000   0.000   0.000   0.000   0.000   0.000  -9.261  -0.000   0.000   0.000  -0.000   6.493   0.000   0.000
  0.000   0.000   0.000   0.000   0.000   0.000  -0.000  -0.000  -0.000  -2.281   0.000   0.000   0.000   0.000   1.425  -0.000
  0.000   0.000   0.000   0.000   0.000   0.000   0.000   0.000   0.000  -0.000  -9.261  -0.000   0.000   0.000  -0.000   6.493
  0.000   0.000   0.000   0.000   0.000   0.000  -0.000   0.000  -0.000   0.000   0.000  -0.000   0.000   0.000  -0.000  -0.000
  0.000   0.000   0.000   0.000   0.000   0.000   0.000   0.000  -0.000   0.000  -0.000   0.000   0.000   0.000   0.000   0.000


------------------------ aborting loop because EDIFF is reached ----------------------------------------


    CHARGE:  cpu time    0.01: real time    0.01
    FORLOC:  cpu time    0.00: real time    0.00
    FORNL :  cpu time    0.06: real time    0.06
    STRESS:  cpu time    0.43: real time    0.43
    FORCOR:  cpu time    0.00: real time    0.00
    FORHAR:  cpu time    0.00: real time    0.00
    MIXING:  cpu time    0.00: real time    0.00
    OFIELD:  cpu time    0.00: real time    0.00

  FORCE on cell =-STRESS in cart. coord.  units (eV):
  Direction    XX          YY          ZZ          XY          YZ          ZX
  --------------------------------------------------------------------------------------
  Alpha Z   166.69950   166.69950   166.69950
  Ewald    -759.25868  -759.25868  -759.25868     0.00000    -0.00000    -0.00000
  Hartree   227.72921   227.72921   227.72921    -0.00000    -0.00000    -0.00000
  E(xc)    -170.15387  -170.15387  -170.15387    -0.00000     0.00000     0.00000
  Local     -32.53992   -32.53992   -32.53992    -0.00000     0.00000    -0.00000
  n-local   -91.17866   -88.10553   -84.86300    -0.00200    -0.15051    -0.04093
  augment   133.02075   133.02075   133.02075    -0.00000    -0.00000     0.00000
  Kinetic   511.46398   523.08394   528.25558    -2.42981    -2.75189    -1.56224
  Fock        0.00000     0.00000     0.00000     0.00000     0.00000     0.00000
  -------------------------------------------------------------------------------------
  Total      -1.61757    -1.61757    -1.61757     0.00000    -0.00000     0.00000
  in kB     -44.29359   -44.29359   -44.29359     0.00000    -0.00000     0.00000
  external pressure =      -44.29 kB  Pullay stress =        0.00 kB


 VOLUME and BASIS-vectors are now :
 -----------------------------------------------------------------------------
  energy-cutoff  :      400.00
  volume of cell :       58.51
      direct lattice vectors                 reciprocal lattice vectors
     3.882200000  0.000000000  0.000000000     0.257585905  0.000000000  0.000000000
     0.000000000  3.882200000  0.000000000     0.000000000  0.257585905  0.000000000
     0.000000000  0.000000000  3.882200000     0.000000000  0.000000000  0.257585905

  length of vectors
     3.882200000  3.882200000  3.882200000     0.257585905  0.257585905  0.257585905


 FORCES acting on ions
    electron-ion (+dipol)            ewald-force                    non-local-force                 convergence-correction
 -----------------------------------------------------------------------------------------------
   0.203E-13 0.298E-13 -.251E-14   -.445E-14 0.121E-13 0.745E-14   0.000E+00 0.000E+00 0.000E+00   -.954E-14 -.126E-13 -.690E-13
   -.598E-13 0.114E-11 0.207E-12   0.857E-14 -.746E-15 0.346E-14   0.000E+00 0.000E+00 0.000E+00   0.639E-14 0.571E-14 0.197E-13
   0.264E-13 0.110E-13 -.257E-11   -.445E-14 -.331E-15 -.257E-14   0.000E+00 0.000E+00 0.000E+00   0.316E-14 -.745E-14 -.316E-13
   0.936E-14 0.299E-13 0.182E-13   -.278E-14 -.416E-14 -.256E-14   0.000E+00 0.000E+00 0.000E+00   -.354E-14 0.127E-13 -.308E-13
   0.634E-14 0.101E-13 0.432E-13   0.319E-14 -.616E-14 -.439E-14   0.000E+00 0.000E+00 0.000E+00   -.356E-14 -.451E-14 0.642E-13
 -----------------------------------------------------------------------------------------------
   0.255E-14 0.122E-11 -.230E-11   0.774E-16 0.667E-15 0.140E-14   0.000E+00 0.000E+00 0.000E+00   -.710E-14 -.614E-14 -.475E-13
 
 
 POSITION                                       TOTAL-FORCE (eV/Angst)
 -----------------------------------------------------------------------------------
      0.00000      0.00000      0.00000         0.000000      0.000000      0.000000
      1.94110      1.94110      1.94110         0.000000      0.000000      0.000000
      1.94110      0.00000      0.00000         0.000000      0.000000      0.000000
      0.00000      1.94110      0.00000         0.000000      0.000000      0.000000
      0.00000      0.00000      1.94110         0.000000      0.000000      0.000000
 -----------------------------------------------------------------------------------
    total drift:                               -0.000000      0.000000     -0.000000


--------------------------------------------------------------------------------------------------------



  FREE ENERGIE OF THE ION-ELECTRON SYSTEM (eV)
  ---------------------------------------------------
  free  energy   TOTEN  =       -40.06987428 eV

  energy  without entropy=      -40.07513555  energy(sigma->0) =      -40.07162804
 


--------------------------------------------------------------------------------------------------------


    POTLOK:  cpu time    0.01: real time    0.01


--------------------------------------------------------------------------------------------------------


 stress matrix after NEB project (eV)
     -1.61757     -0.00000      0.00000
      0.00000     -1.61757     -0.00000
     -0.00000     -0.00000     -1.61757
  FORCES: max atom, RMS     0.000000    0.000000
  FORCE total and by dimension    0.000000    0.000000
  Stress total and by dimension    2.801720    1.617574
 writing wavefunctions
     LOOP+:  cpu time    5.24: real time    5.24
    4ORBIT:  cpu time    0.00: real time    0.00

 total amount of memory used by VASP on root node    48132. kBytes
========================================================================

   base      :      30000. kBytes
   nonl-proj :      16720. kBytes
   fftplans  :        145. kBytes
   grid      :        538. kBytes
   one-center:         77. kBytes
   wavefun   :        652. kBytes
 
  
  
 General timing and accounting informations for this job:
 ========================================================
  
                  Total CPU time used (sec):        5.669
                            User time (sec):        5.542
                          System time (sec):        0.127
                         Elapsed time (sec):        5.694
  
                   Maximum memory used (kb):       74096.
                   Average memory used (kb):           0.
  
                          Minor page faults:        12823
                          Major page faults:            0
                 Voluntary context switches:          122
