    5    5    1    1
  0.1170210E+02  0.3882200E-09  0.3882200E-09  0.3882200E-09  0.5000000E-15
  1.000000000000000E-004
  CAR 
 unknown system                          
     36     10     22
 
  0.0000000E+00  0.0000000E+00  0.0000000E+00  0.1562500E-01
    1      -29.044203
    2      -29.044203
    3      -29.044203
    4      -16.592415
    5      -16.592415
    6      -16.592415
    7      -13.862280
    8      -12.763598
    9      -12.763598
   10        0.661997
   11        0.661997
   12        0.661997
   13        2.589912
   14        2.589912
   15        2.589912
   16        3.302990
   17        3.302990
   18        3.302990
   19        5.568935
   20        5.568935
   21        5.568935
   22        8.044279
 
  0.2500000E+00  0.0000000E+00  0.0000000E+00  0.9375000E-01
    1      -29.082165
    2      -29.042654
    3      -29.042654
    4      -16.711914
    5      -16.587174
    6      -16.587174
    7      -13.545225
    8      -12.747772
    9      -12.609898
   10        0.032448
   11        0.706578
   12        0.706578
   13        1.884985
   14        1.894679
   15        1.894679
   16        2.164760
   17        3.106196
   18        3.106196
   19        5.655416
   20        6.648540
   21        6.648540
   22        8.073996
 
  0.5000000E+00  0.0000000E+00  0.0000000E+00  0.4687500E-01
    1      -29.119599
    2      -29.041080
    3      -29.041080
    4      -16.820662
    5      -16.581922
    6      -16.581922
    7      -13.226889
    8      -12.728174
    9      -12.434866
   10       -0.687560
   11        0.925263
   12        0.925263
   13        1.025256
   14        1.176103
   15        1.176103
   16        1.810640
   17        3.024736
   18        3.024736
   19        5.747597
   20        7.532177
   21        7.532177
   22        8.083576
 
  0.2500000E+00  0.2500000E+00  0.0000000E+00  0.1875000E+00
    1      -29.080841
    2      -29.080722
    3      -29.041132
    4      -16.703797
    5      -16.657761
    6      -16.581337
    7      -13.305626
    8      -12.651902
    9      -12.524434
   10       -0.234794
   11        0.239214
   12        0.620453
   13        0.732078
   14        1.561333
   15        1.968216
   16        2.171110
   17        2.634522
   18        2.965299
   19        6.603433
   20        6.756210
   21        6.991018
   22        8.705435
 
  0.5000000E+00  0.2500000E+00  0.0000000E+00  0.1875000E+00
    1      -29.118440
    2      -29.079423
    3      -29.039626
    4      -16.769167
    5      -16.650935
    6      -16.575487
    7      -13.118426
    8      -12.567706
    9      -12.356013
   10       -0.700538
   11       -0.442925
   12        0.243110
   13        0.913557
   14        1.029936
   15        1.610371
   16        2.121186
   17        2.415593
   18        3.071386
   19        6.717068
   20        7.528652
   21        7.606392
   22        8.837476
 
  0.5000000E+00  0.5000000E+00  0.0000000E+00  0.4687500E-01
    1      -29.117250
    2      -29.117250
    3      -29.038176
    4      -16.717729
    5      -16.717729
    6      -16.569033
    7      -13.105284
    8      -12.275805
    9      -12.275805
   10       -1.095632
   11       -0.838644
   12       -0.555138
   13        0.894321
   14        0.894321
   15        1.816165
   16        1.816165
   17        2.016981
   18        3.651324
   19        7.531027
   20        7.531027
   21        7.929278
   22        9.051457
 
  0.2500000E+00  0.2500000E+00  0.2500000E+00  0.1250000E+00
    1      -29.079548
    2      -29.079099
    3      -29.079099
    4      -16.690103
    5      -16.641099
    6      -16.641099
    7      -13.043888
    8      -12.538253
    9      -12.538253
   10       -0.396825
   11        0.179252
   12        0.179252
   13        0.634144
   14        0.634144
   15        0.871342
   16        2.755777
   17        2.755777
   18        3.132185
   19        7.031823
   20        7.113975
   21        7.113975
   22        9.829611
 
  0.5000000E+00  0.2500000E+00  0.2500000E+00  0.1875000E+00
    1      -29.116842
    2      -29.078038
    3      -29.077345
    4      -16.730795
    5      -16.644934
    6      -16.624252
    7      -12.841471
    8      -12.552286
    9      -12.336413
   10       -0.698627
   11       -0.436221
   12       -0.087498
   13        0.036992
   14        0.413771
   15        0.855176
   16        2.805269
   17        2.853843
   18        3.227152
   19        7.179233
   20        7.670768
   21        7.718631
   22       10.015678
 
  0.5000000E+00  0.5000000E+00  0.2500000E+00  0.9375000E-01
    1      -29.115305
    2      -29.115305
    3      -29.075988
    4      -16.692452
    5      -16.692452
    6      -16.618171
    7      -12.751355
    8      -12.319024
    9      -12.319024
   10       -0.857353
   11       -0.818873
   12       -0.547354
   13       -0.107592
   14       -0.107592
   15        0.533894
   16        3.035293
   17        3.035293
   18        3.695605
   19        7.781723
   20        7.781723
   21        8.048540
   22        9.615451
 
  0.5000000E+00  0.5000000E+00  0.5000000E+00  0.1562500E-01
    1      -29.113345
    2      -29.113345
    3      -29.113345
    4      -16.666679
    5      -16.666679
    6      -16.666679
    7      -12.362662
    8      -12.362662
    9      -12.362662
   10       -0.922042
   11       -0.609072
   12       -0.609072
   13       -0.609072
   14       -0.539351
   15       -0.539351
   16        3.742146
   17        3.742146
   18        3.742146
   19        8.171883
   20        8.171883
   21        8.171883
   22        9.439257
