    5    5    1    1
  0.1172182E+02  0.3884380E-09  0.3884380E-09  0.3884380E-09  0.5000000E-15
  1.000000000000000E-004
  CAR 
 unknown system                          
     36     10     22
 
  0.0000000E+00  0.0000000E+00  0.0000000E+00  0.1562500E-01
    1      -29.063824
    2      -29.063824
    3      -29.063824
    4      -16.612119
    5      -16.612119
    6      -16.612119
    7      -13.867967
    8      -12.771259
    9      -12.771259
   10        0.651888
   11        0.651888
   12        0.651888
   13        2.580276
   14        2.580276
   15        2.580276
   16        3.289749
   17        3.289749
   18        3.289749
   19        5.552139
   20        5.552139
   21        5.552139
   22        8.019600
 
  0.2500000E+00  0.0000000E+00  0.0000000E+00  0.9375000E-01
    1      -29.101470
    2      -29.062291
    3      -29.062291
    4      -16.730302
    5      -16.606916
    6      -16.606916
    7      -13.552686
    8      -12.755547
    9      -12.618959
   10        0.023358
   11        0.696930
   12        0.696930
   13        1.874438
   14        1.885874
   15        1.885874
   16        2.156142
   17        3.093365
   18        3.093365
   19        5.638205
   20        6.628968
   21        6.628968
   22        8.048053
 
  0.5000000E+00  0.0000000E+00  0.0000000E+00  0.4687500E-01
    1      -29.138593
    2      -29.060731
    3      -29.060731
    4      -16.837983
    5      -16.601703
    6      -16.601703
    7      -13.235878
    8      -12.736043
    9      -12.445530
   10       -0.694835
   11        0.915663
   12        0.915663
   13        1.016501
   14        1.168415
   15        1.168415
   16        1.802906
   17        3.012192
   18        3.012192
   19        5.729921
   20        7.509959
   21        7.509959
   22        8.057435
 
  0.2500000E+00  0.2500000E+00  0.0000000E+00  0.1875000E+00
    1      -29.100167
    2      -29.100052
    3      -29.060788
    4      -16.722320
    5      -16.676888
    6      -16.601126
    7      -13.314946
    8      -12.661882
    9      -12.534166
   10       -0.242393
   11        0.229236
   12        0.609161
   13        0.721974
   14        1.553545
   15        1.955729
   16        2.160417
   17        2.620137
   18        2.952285
   19        6.583314
   20        6.736143
   21        6.970228
   22        8.677496
 
  0.5000000E+00  0.2500000E+00  0.0000000E+00  0.1875000E+00
    1      -29.137443
    2      -29.098750
    3      -29.059291
    4      -16.787153
    5      -16.670134
    6      -16.595323
    7      -13.126733
    8      -12.577190
    9      -12.367302
   10       -0.707951
   11       -0.447968
   12        0.233764
   13        0.905174
   14        1.022791
   15        1.601444
   16        2.111227
   17        2.402817
   18        3.060481
   19        6.697026
   20        7.506376
   21        7.584354
   22        8.809606
 
  0.5000000E+00  0.5000000E+00  0.0000000E+00  0.4687500E-01
    1      -29.136262
    2      -29.136262
    3      -29.057855
    4      -16.736385
    5      -16.736385
    6      -16.588923
    7      -13.112390
    8      -12.287673
    9      -12.287673
   10       -1.099358
   11       -0.846746
   12       -0.561588
   13        0.887714
   14        0.887714
   15        1.806716
   16        1.806716
   17        2.003220
   18        3.639257
   19        7.508696
   20        7.508696
   21        7.906537
   22        9.023153
 
  0.2500000E+00  0.2500000E+00  0.2500000E+00  0.1250000E+00
    1      -29.098875
    2      -29.098431
    3      -29.098431
    4      -16.708782
    5      -16.660396
    6      -16.660396
    7      -13.053127
    8      -12.547781
    9      -12.547781
   10       -0.403593
   11        0.171258
   12        0.171258
   13        0.626353
   14        0.626353
   15        0.860315
   16        2.745161
   17        2.745161
   18        3.121294
   19        7.010734
   20        7.093305
   21        7.093305
   22        9.809506
 
  0.5000000E+00  0.2500000E+00  0.2500000E+00  0.1875000E+00
    1      -29.135860
    2      -29.097377
    3      -29.096695
    4      -16.749240
    5      -16.664181
    6      -16.643723
    7      -12.851042
    8      -12.561605
    9      -12.347773
   10       -0.706174
   11       -0.441367
   12       -0.093193
   13        0.029348
   14        0.404381
   15        0.845356
   16        2.794779
   17        2.842965
   18        3.216082
   19        7.157892
   20        7.648162
   21        7.696173
   22        9.995306
 
  0.5000000E+00  0.5000000E+00  0.2500000E+00  0.9375000E-01
    1      -29.134338
    2      -29.134338
    3      -29.095350
    4      -16.711355
    5      -16.711355
    6      -16.637691
    7      -12.760231
    8      -12.330437
    9      -12.330437
   10       -0.861856
   11       -0.827287
   12       -0.553839
   13       -0.113419
   14       -0.113419
   15        0.523497
   16        3.024318
   17        3.024318
   18        3.683386
   19        7.758705
   20        7.758705
   21        8.025088
   22        9.594735
 
  0.5000000E+00  0.5000000E+00  0.5000000E+00  0.1562500E-01
    1      -29.132397
    2      -29.132397
    3      -29.132397
    4      -16.685839
    5      -16.685839
    6      -16.685839
    7      -12.373607
    8      -12.373607
    9      -12.373607
   10       -0.931379
   11       -0.614366
   12       -0.614366
   13       -0.614365
   14       -0.545868
   15       -0.545868
   16        3.729782
   17        3.729782
   18        3.729782
   19        8.147699
   20        8.147699
   21        8.147699
   22        9.419781
