    5    5 1024    1
  0.1170210E+02  0.3882200E-09  0.3882200E-09  0.3882200E-09  0.5000000E-15
  1.000000000000000E-004
  CAR 
 unknown system                          
     36     63     22
 
  0.0000000E+00  0.0000000E+00  0.0000000E+00  0.8000000E-02
    1      -28.987072
    2      -28.974011
    3      -28.967575
    4      -16.452566
    5      -16.408905
    6      -16.394385
    7      -13.887396
    8      -12.801354
    9      -12.773002
   10        0.558531
   11        0.566070
   12        0.581344
   13        2.178217
   14        2.223547
   15        2.483693
   16        2.830246
   17        2.959107
   18        3.044002
   19        5.851044
   20        6.065938
   21        6.265703
   22        8.291063
 
  0.2000000E+00  0.0000000E+00  0.0000000E+00  0.1600000E-01
    1      -28.994835
    2      -28.985406
    3      -28.972309
    4      -16.510335
    5      -16.430621
    6      -16.401340
    7      -13.664625
    8      -12.776069
    9      -12.694165
   10        0.141084
   11        0.595411
   12        0.618418
   13        1.737446
   14        1.898650
   15        2.168009
   16        2.271964
   17        2.769798
   18        2.904382
   19        6.208471
   20        6.408742
   21        6.565420
   22        8.396993
 
  0.4000000E+00  0.0000000E+00  0.0000000E+00  0.1600000E-01
    1      -29.035988
    2      -28.984020
    3      -28.970658
    4      -16.652368
    5      -16.424496
    6      -16.389387
    7      -13.299675
    8      -12.770698
    9      -12.523122
   10       -0.556578
   11        0.747771
   12        0.782086
   13        1.035289
   14        1.298250
   15        1.454561
   16        1.770097
   17        2.599154
   18        2.795215
   19        6.331621
   20        7.208217
   21        7.488247
   22        8.391115
 
  0.0000000E+00  0.2000000E+00  0.0000000E+00  0.1600000E-01
    1      -29.002009
    2      -28.983857
    3      -28.966708
    4      -16.521951
    5      -16.427303
    6      -16.389870
    7      -13.664603
    8      -12.785050
    9      -12.687460
   10        0.132294
   11        0.579324
   12        0.606298
   13        1.750932
   14        1.881537
   15        2.112119
   16        2.314899
   17        2.795952
   18        2.937786
   19        6.080202
   20        6.484134
   21        6.607932
   22        8.344266
 
  0.2000000E+00  0.2000000E+00  0.0000000E+00  0.1600000E-01
    1      -29.001070
    2      -28.993856
    3      -28.981786
    4      -16.526405
    5      -16.455807
    6      -16.415074
    7      -13.481030
    8      -12.724352
    9      -12.639376
   10       -0.048851
   11        0.341895
   12        0.610832
   13        1.057204
   14        1.634818
   15        1.926664
   16        2.332530
   17        2.676147
   18        2.790714
   19        6.457851
   20        6.603328
   21        6.803880
   22        8.817792
 
  0.4000000E+00  0.2000000E+00  0.0000000E+00  0.1600000E-01
    1      -29.035194
    2      -28.999449
    3      -28.980576
    4      -16.616712
    5      -16.463875
    6      -16.401067
    7      -13.203400
    8      -12.684728
    9      -12.470181
   10       -0.578611
   11       -0.082222
   12        0.426532
   13        0.803373
   14        1.218642
   15        1.542275
   16        2.066230
   17        2.617910
   18        2.694859
   19        6.636721
   20        7.291286
   21        7.507262
   22        8.893232
 
 -0.4000000E+00  0.2000000E+00  0.0000000E+00  0.1600000E-01
    1      -29.035225
    2      -28.999431
    3      -28.980563
    4      -16.615898
    5      -16.464276
    6      -16.400889
    7      -13.205033
    8      -12.683260
    9      -12.471077
   10       -0.603872
   11       -0.122351
   12        0.497502
   13        0.811574
   14        1.223719
   15        1.556014
   16        2.052451
   17        2.615423
   18        2.698924
   19        6.619278
   20        7.270647
   21        7.528007
   22        8.890490
 
 -0.2000000E+00  0.2000000E+00  0.0000000E+00  0.1600000E-01
    1      -29.001231
    2      -28.993783
    3      -28.981696
    4      -16.524298
    5      -16.457390
    6      -16.414591
    7      -13.482449
    8      -12.722868
    9      -12.641266
   10       -0.072015
   11        0.249133
   12        0.620460
   13        1.203863
   14        1.646894
   15        1.956733
   16        2.259935
   17        2.676000
   18        2.827643
   19        6.363041
   20        6.614292
   21        6.848645
   22        8.809609
 
  0.0000000E+00  0.4000000E+00  0.0000000E+00  0.1600000E-01
    1      -29.042990
    2      -28.982758
    3      -28.964983
    4      -16.658457
    5      -16.418491
    6      -16.382468
    7      -13.297580
    8      -12.773494
    9      -12.526675
   10       -0.583614
   11        0.691811
   12        0.719876
   13        1.093493
   14        1.289623
   15        1.425919
   16        1.771667
   17        2.680671
   18        2.858475
   19        6.167696
   20        7.315065
   21        7.491661
   22        8.340498
 
  0.2000000E+00  0.4000000E+00  0.0000000E+00  0.1600000E-01
    1      -29.042202
    2      -28.992279
    3      -28.980778
    4      -16.622339
    5      -16.452180
    6      -16.403199
    7      -13.202889
    8      -12.681404
    9      -12.476261
   10       -0.598960
   11       -0.119241
   12        0.459411
   13        0.763934
   14        1.243497
   15        1.528404
   16        2.076185
   17        2.657498
   18        2.698275
   19        6.533696
   20        7.380775
   21        7.501594
   22        8.866084
 
  0.4000000E+00  0.4000000E+00  0.0000000E+00  0.1600000E-01
    1      -29.041002
    2      -29.033743
    3      -28.979641
    4      -16.570770
    5      -16.539028
    6      -16.393170
    7      -13.140835
    8      -12.438900
    9      -12.373526
   10       -0.892643
   11       -0.663194
   12       -0.331683
   13        0.782706
   14        0.996720
   15        1.652427
   16        1.799952
   17        2.217822
   18        3.345657
   19        7.369075
   20        7.447166
   21        7.800502
   22        9.000393
 
 -0.4000000E+00  0.4000000E+00  0.0000000E+00  0.1600000E-01
    1      -29.041098
    2      -29.033645
    3      -28.979638
    4      -16.568786
    5      -16.540710
    6      -16.393107
    7      -13.142168
    8      -12.434103
    9      -12.377577
   10       -0.919459
   11       -0.689006
   12       -0.274580
   13        0.781084
   14        0.999947
   15        1.688074
   16        1.765033
   17        2.224305
   18        3.342457
   19        7.335426
   20        7.460062
   21        7.813686
   22        8.998676
 
 -0.2000000E+00  0.4000000E+00  0.0000000E+00  0.1600000E-01
    1      -29.042224
    2      -28.992274
    3      -28.980760
    4      -16.621593
    5      -16.452542
    6      -16.402985
    7      -13.204604
    8      -12.679655
    9      -12.477361
   10       -0.625212
   11       -0.149971
   12        0.520142
   13        0.773506
   14        1.250175
   15        1.539512
   16        2.062290
   17        2.648856
   18        2.710490
   19        6.517545
   20        7.348085
   21        7.532267
   22        8.864462
 
  0.0000000E+00  0.0000000E+00  0.2000000E+00  0.1600000E-01
    1      -29.012520
    2      -28.973538
    3      -28.966702
    4      -16.538336
    5      -16.406079
    6      -16.390154
    7      -13.664038
    8      -12.793523
    9      -12.679730
   10        0.129909
   11        0.559877
   12        0.573453
   13        1.768158
   14        1.853027
   15        2.113158
   16        2.251208
   17        2.877997
   18        2.948113
   19        5.902915
   20        6.621014
   21        6.698371
   22        8.297079
 
  0.2000000E+00  0.0000000E+00  0.2000000E+00  0.1600000E-01
    1      -29.011685
    2      -28.993076
    3      -28.972120
    4      -16.537887
    5      -16.457397
    6      -16.398265
    7      -13.477333
    8      -12.734953
    9      -12.632075
   10       -0.044196
   11        0.338873
   12        0.587334
   13        1.028304
   14        1.617087
   15        1.993305
   16        2.303656
   17        2.682949
   18        2.728313
   19        6.437384
   20        6.694803
   21        6.829940
   22        8.779393
 
  0.4000000E+00  0.0000000E+00  0.2000000E+00  0.1600000E-01
    1      -29.035228
    2      -29.009652
    3      -28.970478
    4      -16.618214
    5      -16.473266
    6      -16.387500
    7      -13.189721
    8      -12.696372
    9      -12.471505
   10       -0.575767
   11       -0.073714
   12        0.458602
   13        0.746976
   14        1.157266
   15        1.554822
   16        2.117823
   17        2.520952
   18        2.726696
   19        6.731163
   20        7.279614
   21        7.499498
   22        8.896634
 
 -0.4000000E+00  0.0000000E+00  0.2000000E+00  0.1600000E-01
    1      -29.035317
    2      -29.009568
    3      -28.970475
    4      -16.616860
    5      -16.474090
    6      -16.387437
    7      -13.189835
    8      -12.695404
    9      -12.473595
   10       -0.615260
   11       -0.129894
   12        0.559282
   13        0.757228
   14        1.173059
   15        1.574278
   16        2.107193
   17        2.518605
   18        2.716418
   19        6.710134
   20        7.263076
   21        7.513338
   22        8.887810
 
 -0.2000000E+00  0.0000000E+00  0.2000000E+00  0.1600000E-01
    1      -29.011878
    2      -28.992895
    3      -28.972107
    4      -16.534525
    5      -16.459917
    6      -16.398106
    7      -13.476685
    8      -12.733968
    9      -12.635826
   10       -0.085303
   11        0.213336
   12        0.585800
   13        1.254257
   14        1.643877
   15        2.027974
   16        2.242798
   17        2.662417
   18        2.753493
   19        6.361435
   20        6.681788
   21        6.862042
   22        8.761422
 
  0.0000000E+00  0.2000000E+00  0.2000000E+00  0.1600000E-01
    1      -29.012356
    2      -28.998740
    3      -28.965802
    4      -16.544542
    5      -16.460799
    6      -16.385707
    7      -13.476446
    8      -12.745460
    9      -12.623859
   10       -0.043689
   11        0.392323
   12        0.580814
   13        0.949745
   14        1.599997
   15        2.044263
   16        2.277069
   17        2.663645
   18        2.721068
   19        6.515146
   20        6.665489
   21        6.834091
   22        8.749547
 
  0.2000000E+00  0.2000000E+00  0.2000000E+00  0.1600000E-01
    1      -29.011323
    2      -28.998098
    3      -28.991536
    4      -16.540252
    5      -16.447380
    6      -16.445056
    7      -13.299870
    8      -12.644431
    9      -12.634691
   10       -0.201508
   11        0.309626
   12        0.389316
   13        0.936320
   14        0.986300
   15        1.381352
   16        2.518431
   17        2.553909
   18        2.863049
   19        6.776920
   20        6.873026
   21        6.934097
   22        9.643041
 
  0.4000000E+00  0.2000000E+00  0.2000000E+00  0.1600000E-01
    1      -29.034242
    2      -29.009212
    3      -28.995999
    4      -16.590568
    5      -16.476992
    6      -16.424615
    7      -13.033127
    8      -12.655699
    9      -12.447249
   10       -0.599994
   11       -0.101085
   12        0.142653
   13        0.270746
   14        0.709847
   15        1.311990
   16        2.468753
   17        2.497026
   18        2.895143
   19        7.000545
   20        7.389155
   21        7.565543
   22        9.730214
 
 -0.4000000E+00  0.2000000E+00  0.2000000E+00  0.1600000E-01
    1      -29.034402
    2      -29.009148
    3      -28.995912
    4      -16.588280
    5      -16.478171
    6      -16.424188
    7      -13.034425
    8      -12.656920
    9      -12.447706
   10       -0.649096
   11       -0.168531
   12        0.103506
   13        0.365080
   14        0.777348
   15        1.356129
   16        2.496619
   17        2.528135
   18        2.835904
   19        6.985246
   20        7.347798
   21        7.587784
   22        9.732370
 
 -0.2000000E+00  0.2000000E+00  0.2000000E+00  0.1600000E-01
    1      -29.011469
    2      -28.998788
    3      -28.990709
    4      -16.536422
    5      -16.448235
    6      -16.445425
    7      -13.301234
    8      -12.646928
    9      -12.635820
   10       -0.227787
   11        0.178788
   12        0.309534
   13        0.944492
   14        1.120271
   15        1.573331
   16        2.546994
   17        2.656061
   18        2.752005
   19        6.612181
   20        6.920573
   21        6.947042
   22        9.473474
 
  0.0000000E+00  0.4000000E+00  0.2000000E+00  0.1600000E-01
    1      -29.042342
    2      -29.008942
    3      -28.964112
    4      -16.625370
    5      -16.469430
    6      -16.378196
    7      -13.181853
    8      -12.705833
    9      -12.473915
   10       -0.586263
   11       -0.102733
   12        0.508662
   13        0.687631
   14        1.133863
   15        1.552462
   16        2.178668
   17        2.480054
   18        2.738338
   19        6.696534
   20        7.353808
   21        7.481895
   22        8.871646
 
  0.2000000E+00  0.4000000E+00  0.2000000E+00  0.1600000E-01
    1      -29.041347
    2      -29.007941
    3      -28.990197
    4      -16.596801
    5      -16.465912
    6      -16.425275
    7      -13.030432
    8      -12.653569
    9      -12.455580
   10       -0.602490
   11       -0.149987
   12        0.109207
   13        0.297454
   14        0.714804
   15        1.343943
   16        2.475747
   17        2.515420
   18        2.892926
   19        6.942334
   20        7.454354
   21        7.536637
   22        9.712024
 
  0.4000000E+00  0.4000000E+00  0.2000000E+00  0.1600000E-01
    1      -29.039803
    2      -29.032531
    3      -29.005646
    4      -16.555091
    5      -16.521529
    6      -16.430117
    7      -12.912185
    8      -12.449896
    9      -12.399959
   10       -0.802354
   11       -0.608516
   12       -0.310766
   13        0.093031
   14        0.186070
   15        1.023050
   16        2.570722
   17        2.673289
   18        3.384386
   19        7.535756
   20        7.577876
   21        7.861255
   22        9.790913
 
 -0.4000000E+00  0.4000000E+00  0.2000000E+00  0.1600000E-01
    1      -29.039885
    2      -29.032636
    3      -29.005467
    4      -16.551967
    5      -16.522979
    6      -16.430089
    7      -12.915425
    8      -12.448413
    9      -12.401336
   10       -0.823369
   11       -0.662295
   12       -0.275851
   13        0.077682
   14        0.200825
   15        1.085939
   16        2.630716
   17        2.660608
   18        3.366553
   19        7.477089
   20        7.592054
   21        7.873845
   22        9.699386
 
 -0.2000000E+00  0.4000000E+00  0.2000000E+00  0.1600000E-01
    1      -29.041358
    2      -29.008396
    3      -28.989754
    4      -16.594666
    5      -16.464361
    6      -16.426146
    7      -13.035736
    8      -12.650779
    9      -12.458322
   10       -0.616190
   11       -0.229847
   12        0.111790
   13        0.319043
   14        0.653479
   15        1.506861
   16        2.512708
   17        2.630028
   18        2.822893
   19        6.828881
   20        7.437426
   21        7.558237
   22        9.688754
 
  0.0000000E+00 -0.4000000E+00  0.2000000E+00  0.1600000E-01
    1      -29.042479
    2      -29.008809
    3      -28.964110
    4      -16.622953
    5      -16.470965
    6      -16.378180
    7      -13.179876
    8      -12.704740
    9      -12.479181
   10       -0.658940
   11       -0.172131
   12        0.630602
   13        0.730725
   14        1.170475
   15        1.583270
   16        2.170118
   17        2.473672
   18        2.710431
   19        6.666118
   20        7.333077
   21        7.490770
   22        8.852712
 
  0.2000000E+00 -0.4000000E+00  0.2000000E+00  0.1600000E-01
    1      -29.041571
    2      -29.007788
    3      -28.990141
    4      -16.593513
    5      -16.467708
    6      -16.424607
    7      -13.029902
    8      -12.656310
    9      -12.457790
   10       -0.677646
   11       -0.223633
   12        0.060991
   13        0.405915
   14        0.820902
   15        1.404247
   16        2.512051
   17        2.558861
   18        2.809696
   19        6.920044
   20        7.392862
   21        7.565862
   22        9.704483
 
  0.4000000E+00 -0.4000000E+00  0.2000000E+00  0.1600000E-01
    1      -29.040173
    2      -29.032439
    3      -29.005389
    4      -16.551185
    5      -16.522293
    6      -16.430439
    7      -12.916604
    8      -12.447720
    9      -12.403027
   10       -0.825187
   11       -0.671086
   12       -0.291699
   13        0.051091
   14        0.220697
   15        1.134335
   16        2.642426
   17        2.673683
   18        3.360105
   19        7.474113
   20        7.570985
   21        7.873523
   22        9.658618
 
 -0.4000000E+00 -0.4000000E+00  0.2000000E+00  0.1600000E-01
    1      -29.040036
    2      -29.032744
    3      -29.005240
    4      -16.551504
    5      -16.520807
    6      -16.430733
    7      -12.917175
    8      -12.450058
    9      -12.401808
   10       -0.805365
   11       -0.643315
   12       -0.376942
   13       -0.003340
   14        0.280577
   15        1.172480
   16        2.668743
   17        2.678600
   18        3.354238
   19        7.433027
   20        7.600670
   21        7.858803
   22        9.599532
 
 -0.2000000E+00 -0.4000000E+00  0.2000000E+00  0.1600000E-01
    1      -29.041525
    2      -29.008206
    3      -28.989787
    4      -16.592886
    5      -16.465584
    6      -16.425908
    7      -13.032306
    8      -12.653995
    9      -12.460409
   10       -0.654784
   11       -0.255713
   12        0.092712
   13        0.329758
   14        0.747134
   15        1.525866
   16        2.530826
   17        2.646797
   18        2.782276
   19        6.816951
   20        7.448243
   21        7.530805
   22        9.644194
 
  0.0000000E+00 -0.2000000E+00  0.2000000E+00  0.1600000E-01
    1      -29.012888
    2      -28.998212
    3      -28.965796
    4      -16.537909
    5      -16.465989
    6      -16.385664
    7      -13.472533
    8      -12.745498
    9      -12.631411
   10       -0.126425
   11        0.184655
   12        0.568205
   13        1.355836
   14        1.649255
   15        2.103664
   16        2.230687
   17        2.637329
   18        2.689950
   19        6.386244
   20        6.697292
   21        6.829263
   22        8.711911
 
  0.2000000E+00 -0.2000000E+00  0.2000000E+00  0.1600000E-01
    1      -29.011967
    2      -28.998104
    3      -28.990905
    4      -16.533553
    5      -16.452365
    6      -16.443130
    7      -13.299057
    8      -12.650604
    9      -12.636670
   10       -0.245259
   11        0.125392
   12        0.274234
   13        0.977705
   14        1.174998
   15        1.655169
   16        2.577397
   17        2.662580
   18        2.706387
   19        6.591354
   20        6.880613
   21        6.952150
   22        9.386346
 
  0.4000000E+00 -0.2000000E+00  0.2000000E+00  0.1600000E-01
    1      -29.034253
    2      -29.010290
    3      -28.994955
    4      -16.587165
    5      -16.473630
    6      -16.426719
    7      -13.040788
    8      -12.651787
    9      -12.452297
   10       -0.609338
   11       -0.219797
   12        0.122908
   13        0.296840
   14        0.610164
   15        1.591462
   16        2.531125
   17        2.659618
   18        2.799576
   19        6.810110
   20        7.390167
   21        7.567470
   22        9.654804
 
 -0.4000000E+00 -0.2000000E+00  0.2000000E+00  0.1600000E-01
    1      -29.034341
    2      -29.010171
    3      -28.994990
    4      -16.586573
    5      -16.474053
    6      -16.426711
    7      -13.039399
    8      -12.652949
    9      -12.452958
   10       -0.621512
   11       -0.228423
   12        0.114658
   13        0.293760
   14        0.649827
   15        1.595966
   16        2.536725
   17        2.662630
   18        2.788798
   19        6.806001
   20        7.393733
   21        7.559200
   22        9.634109
 
 -0.2000000E+00 -0.2000000E+00  0.2000000E+00  0.1600000E-01
    1      -29.012217
    2      -28.997694
    3      -28.991072
    4      -16.532303
    5      -16.452710
    6      -16.443736
    7      -13.297578
    8      -12.649202
    9      -12.640259
   10       -0.255184
   11        0.130819
   12        0.227164
   13        0.991266
   14        1.212538
   15        1.683147
   16        2.585894
   17        2.667756
   18        2.688293
   19        6.583679
   20        6.878710
   21        6.936079
   22        9.357945
 
  0.0000000E+00  0.0000000E+00  0.4000000E+00  0.1600000E-01
    1      -29.054279
    2      -28.971934
    3      -28.965003
    4      -16.667795
    5      -16.398376
    6      -16.383138
    7      -13.296030
    8      -12.776900
    9      -12.522160
   10       -0.634080
   11        0.616406
   12        0.630512
   13        1.144318
   14        1.301891
   15        1.388124
   16        1.738552
   17        2.806547
   18        2.899562
   19        5.990478
   20        7.439776
   21        7.574444
   22        8.290600
 
  0.2000000E+00  0.0000000E+00  0.4000000E+00  0.1600000E-01
    1      -29.053482
    2      -28.991600
    3      -28.970612
    4      -16.631885
    5      -16.447471
    6      -16.389797
    7      -13.190135
    8      -12.691959
    9      -12.475165
   10       -0.634976
   11       -0.173065
   12        0.520410
   13        0.662026
   14        1.205551
   15        1.542470
   16        2.140968
   17        2.626010
   18        2.695110
   19        6.505898
   20        7.452305
   21        7.555040
   22        8.845632
 
  0.4000000E+00  0.0000000E+00  0.4000000E+00  0.1600000E-01
    1      -29.052279
    2      -29.033432
    3      -28.969029
    4      -16.579132
    5      -16.537718
    6      -16.379778
    7      -13.114447
    8      -12.460172
    9      -12.374903
   10       -0.910078
   11       -0.666497
   12       -0.317500
   13        0.688106
   14        0.933081
   15        1.680088
   16        1.811696
   17        2.198313
   18        3.383284
   19        7.365621
   20        7.532966
   21        7.783117
   22        9.049985
 
 -0.4000000E+00  0.0000000E+00  0.4000000E+00  0.1600000E-01
    1      -29.052351
    2      -29.033355
    3      -28.969027
    4      -16.576446
    5      -16.540053
    6      -16.379751
    7      -13.115441
    8      -12.452732
    9      -12.382041
   10       -0.948582
   11       -0.703656
   12       -0.234122
   13        0.676498
   14        0.948626
   15        1.718394
   16        1.780292
   17        2.199624
   18        3.376674
   19        7.344239
   20        7.529754
   21        7.798508
   22        9.043622
 
 -0.2000000E+00  0.0000000E+00  0.4000000E+00  0.1600000E-01
    1      -29.053518
    2      -28.991568
    3      -28.970608
    4      -16.630795
    5      -16.448036
    6      -16.389710
    7      -13.190591
    8      -12.690008
    9      -12.477917
   10       -0.678928
   11       -0.199801
   12        0.576001
   13        0.692552
   14        1.222304
   15        1.556000
   16        2.130147
   17        2.623227
   18        2.690942
   19        6.488740
   20        7.421192
   21        7.577778
   22        8.840036
 
  0.0000000E+00  0.2000000E+00  0.4000000E+00  0.1600000E-01
    1      -29.053525
    2      -28.998039
    3      -28.964127
    4      -16.633334
    5      -16.455199
    6      -16.378578
    7      -13.182797
    8      -12.704550
    9      -12.471673
   10       -0.623633
   11       -0.165458
   12        0.536795
   13        0.636454
   14        1.159472
   15        1.554178
   16        2.191249
   17        2.538780
   18        2.715981
   19        6.567380
   20        7.440743
   21        7.542420
   22        8.850131
 
  0.2000000E+00  0.2000000E+00  0.4000000E+00  0.1600000E-01
    1      -29.052525
    2      -28.997029
    3      -28.990202
    4      -16.604741
    5      -16.450696
    6      -16.427219
    7      -13.024921
    8      -12.653551
    9      -12.458756
   10       -0.624233
   11       -0.213995
   12        0.031658
   13        0.341477
   14        0.766776
   15        1.354262
   16        2.485016
   17        2.510309
   18        2.887805
   19        6.895187
   20        7.520057
   21        7.546224
   22        9.696853
 
  0.4000000E+00  0.2000000E+00  0.4000000E+00  0.1600000E-01
    1      -29.051004
    2      -29.032187
    3      -28.995010
    4      -16.561715
    5      -16.519277
    6      -16.421751
    7      -12.891374
    8      -12.465571
    9      -12.402385
   10       -0.821637
   11       -0.604843
   12       -0.292982
   13        0.017295
   14        0.162130
   15        1.059768
   16        2.563751
   17        2.662168
   18        3.412043
   19        7.524251
   20        7.614447
   21        7.850692
   22        9.767917
 
 -0.4000000E+00  0.2000000E+00  0.4000000E+00  0.1600000E-01
    1      -29.051080
    2      -29.032183
    3      -28.994937
    4      -16.558496
    5      -16.521365
    6      -16.421518
    7      -12.894070
    8      -12.461765
    9      -12.406063
   10       -0.845862
   11       -0.679583
   12       -0.220454
   13        0.013136
   14        0.176053
   15        1.096894
   16        2.618302
   17        2.647532
   18        3.393698
   19        7.476734
   20        7.624529
   21        7.866601
   22        9.687904
 
 -0.2000000E+00  0.2000000E+00  0.4000000E+00  0.1600000E-01
    1      -29.052561
    2      -28.997640
    3      -28.989571
    4      -16.602751
    5      -16.450233
    6      -16.427413
    7      -13.028408
    8      -12.651677
    9      -12.461506
   10       -0.653511
   11       -0.288447
   12        0.054229
   13        0.365313
   14        0.744752
   15        1.464647
   16        2.514578
   17        2.616831
   18        2.811759
   19        6.813175
   20        7.481319
   21        7.587740
   22        9.677805
 
  0.0000000E+00  0.4000000E+00  0.4000000E+00  0.1600000E-01
    1      -29.053119
    2      -29.039111
    3      -28.962501
    4      -16.587282
    5      -16.533662
    6      -16.370636
    7      -13.099398
    8      -12.484777
    9      -12.370151
   10       -0.916019
   11       -0.647840
   12       -0.313050
   13        0.663495
   14        0.882665
   15        1.692903
   16        1.829157
   17        2.168001
   18        3.406611
   19        7.420895
   20        7.521819
   21        7.747914
   22        9.083048
 
  0.2000000E+00  0.4000000E+00  0.4000000E+00  0.1600000E-01
    1      -29.051804
    2      -29.037885
    3      -28.988513
    4      -16.568667
    5      -16.513326
    6      -16.417325
    7      -12.878392
    8      -12.481447
    9      -12.403043
   10       -0.835756
   11       -0.573651
   12       -0.294670
   13       -0.010409
   14        0.141773
   15        1.069898
   16        2.567842
   17        2.663170
   18        3.425010
   19        7.529064
   20        7.629239
   21        7.819066
   22        9.742589
 
  0.4000000E+00  0.4000000E+00  0.4000000E+00  0.1600000E-01
    1      -29.049751
    2      -29.036250
    3      -29.029778
    4      -16.537035
    5      -16.492563
    6      -16.478051
    7      -12.531400
    8      -12.459106
    9      -12.444551
   10       -0.859204
   11       -0.508557
   12       -0.475876
   13       -0.401156
   14       -0.245613
   15       -0.205281
   16        3.258517
   17        3.302168
   18        3.530429
   19        7.833243
   20        7.956040
   21        8.006523
   22        9.752939
 
 -0.4000000E+00  0.4000000E+00  0.4000000E+00  0.1600000E-01
    1      -29.049832
    2      -29.036659
    3      -29.029294
    4      -16.535138
    5      -16.493267
    6      -16.477951
    7      -12.541581
    8      -12.459678
    9      -12.436197
   10       -0.864225
   11       -0.600620
   12       -0.508775
   13       -0.433415
   14       -0.207843
   15       -0.067328
   16        3.289408
   17        3.360400
   18        3.464436
   19        7.814746
   20        7.956954
   21        8.020430
   22        9.575239
 
 -0.2000000E+00  0.4000000E+00  0.4000000E+00  0.1600000E-01
    1      -29.051846
    2      -29.037974
    3      -28.988400
    4      -16.566925
    5      -16.512912
    6      -16.417354
    7      -12.882375
    8      -12.480458
    9      -12.404064
   10       -0.833931
   11       -0.605895
   12       -0.336932
   13       -0.050415
   14        0.197721
   15        1.150224
   16        2.627862
   17        2.666038
   18        3.406405
   19        7.461076
   20        7.646002
   21        7.827168
   22        9.627941
 
  0.0000000E+00 -0.4000000E+00  0.4000000E+00  0.1600000E-01
    1      -29.053318
    2      -29.038905
    3      -28.962498
    4      -16.583133
    5      -16.537233
    6      -16.370632
    7      -13.100281
    8      -12.472073
    9      -12.383227
   10       -0.976623
   11       -0.714939
   12       -0.170438
   13        0.634122
   14        0.920628
   15        1.745796
   16        1.793293
   17        2.164277
   18        3.392548
   19        7.385131
   20        7.525253
   21        7.766113
   22        9.066152
 
  0.2000000E+00 -0.4000000E+00  0.4000000E+00  0.1600000E-01
    1      -29.052052
    2      -29.037687
    3      -28.988458
    4      -16.564391
    5      -16.516223
    6      -16.416960
    7      -12.881015
    8      -12.472749
    9      -12.412541