    5    5 1024    1
  0.1170210E+02  0.3882200E-09  0.3882200E-09  0.3882200E-09  0.5000000E-15
  1.000000000000000E-004
  CAR 
 unknown system                          
     36     63     22
 
  0.0000000E+00  0.0000000E+00  0.0000000E+00  0.8000000E-02
    1      -28.989788
    2      -28.980368
    3      -28.972707
    4      -16.454932
    5      -16.412452
    6      -16.398553
    7      -13.887378
    8      -12.799633
    9      -12.775030
   10        0.556636
   11        0.567179
   12        0.582406
   13        2.183347
   14        2.239713
   15        2.491314
   16        2.843673
   17        2.960690
   18        3.049982
   19        5.853713
   20        6.055085
   21        6.227779
   22        8.288169
 
  0.2000000E+00  0.0000000E+00  0.0000000E+00  0.1600000E-01
    1      -28.999838
    2      -28.988384
    3      -28.978476
    4      -16.512981
    5      -16.433743
    6      -16.405063
    7      -13.665208
    8      -12.778688
    9      -12.692494
   10        0.137824
   11        0.596350
   12        0.620271
   13        1.738542
   14        1.917607
   15        2.165981
   16        2.273450
   17        2.796322
   18        2.912905
   19        6.175684
   20        6.395469
   21        6.554148
   22        8.376850
 
  0.4000000E+00  0.0000000E+00  0.0000000E+00  0.1600000E-01
    1      -29.041017
    2      -28.986825
    3      -28.976881
    4      -16.654210
    5      -16.427531
    6      -16.393300
    7      -13.300797
    8      -12.772409
    9      -12.523797
   10       -0.555117
   11        0.748064
   12        0.784661
   13        1.038824
   14        1.303398
   15        1.455207
   16        1.771803
   17        2.626745
   18        2.804506
   19        6.289842
   20        7.192813
   21        7.481708
   22        8.371070
 
  0.0000000E+00  0.2000000E+00  0.0000000E+00  0.1600000E-01
    1      -29.008180
    2      -28.986766
    3      -28.971861
    4      -16.525369
    5      -16.429597
    6      -16.394080
    7      -13.664188
    8      -12.782392
    9      -12.690031
   10        0.133296
   11        0.574432
   12        0.607007
   13        1.761518
   14        1.887574
   15        2.120708
   16        2.304467
   17        2.804984
   18        2.945808
   19        6.061063
   20        6.489851
   21        6.597586
   22        8.329933
 
  0.2000000E+00  0.2000000E+00  0.0000000E+00  0.1600000E-01
    1      -29.007290
    2      -28.998772
    3      -28.984823
    4      -16.529322
    5      -16.459477
    6      -16.417800
    7      -13.481235
    8      -12.725224
    9      -12.639204
   10       -0.050472
   11        0.343149
   12        0.612531
   13        1.055317
   14        1.642519
   15        1.947370
   16        2.332047
   17        2.675488
   18        2.792228
   19        6.445739
   20        6.593867
   21        6.796332
   22        8.799882
 
  0.4000000E+00  0.2000000E+00  0.0000000E+00  0.1600000E-01
    1      -29.040227
    2      -29.005579
    3      -28.983492
    4      -16.618635
    5      -16.467612
    6      -16.404088
    7      -13.203070
    8      -12.687365
    9      -12.470826
   10       -0.576935
   11       -0.082167
   12        0.432829
   13        0.805615
   14        1.224561
   15        1.544294
   16        2.079180
   17        2.614287
   18        2.695510
   19        6.621875
   20        7.277457
   21        7.498857
   22        8.878397
 
 -0.4000000E+00  0.2000000E+00  0.0000000E+00  0.1600000E-01
    1      -29.040265
    2      -29.005549
    3      -28.983483
    4      -16.617873
    5      -16.468048
    6      -16.403921
    7      -13.204076
    8      -12.686196
    9      -12.471886
   10       -0.604413
   11       -0.125092
   12        0.509275
   13        0.811777
   14        1.234571
   15        1.555894
   16        2.066601
   17        2.611988
   18        2.696781
   19        6.605204
   20        7.256739
   21        7.518470
   22        8.875275
 
 -0.2000000E+00  0.2000000E+00  0.0000000E+00  0.1600000E-01
    1      -29.007492
    2      -28.998622
    3      -28.984769
    4      -16.527289
    5      -16.461143
    6      -16.417330
    7      -13.481858
    8      -12.724120
    9      -12.641231
   10       -0.075017
   11        0.241913
   12        0.620852
   13        1.214470
   14        1.660142
   15        1.973207
   16        2.263956
   17        2.674461
   18        2.823028
   19        6.354511
   20        6.605567
   21        6.835168
   22        8.790537
 
  0.0000000E+00  0.4000000E+00  0.0000000E+00  0.1600000E-01
    1      -29.049454
    2      -28.985408
    3      -28.970144
    4      -16.661665
    5      -16.420760
    6      -16.386742
    7      -13.296655
    8      -12.770674
    9      -12.528298
   10       -0.588885
   11        0.680876
   12        0.722993
   13        1.098188
   14        1.292758
   15        1.419269
   16        1.772280
   17        2.698297
   18        2.864536
   19        6.149420
   20        7.320037
   21        7.491294
   22        8.326487
 
  0.2000000E+00  0.4000000E+00  0.0000000E+00  0.1600000E-01
    1      -29.048669
    2      -28.997226
    3      -28.983576
    4      -16.625540
    5      -16.455274
    6      -16.406153
    7      -13.201828
    8      -12.680911
    9      -12.477117
   10       -0.603154
   11       -0.126225
   12        0.463255
   13        0.767160
   14        1.241966
   15        1.536380
   16        2.087640
   17        2.652982
   18        2.699341
   19        6.523479
   20        7.378570
   21        7.496761
   22        8.855359
 
  0.4000000E+00  0.4000000E+00  0.0000000E+00  0.1600000E-01
    1      -29.047505
    2      -29.038697
    3      -28.982298
    4      -16.573360
    5      -16.542115
    6      -16.396127
    7      -13.139123
    8      -12.441853
    9      -12.373874
   10       -0.894457
   11       -0.663914
   12       -0.328406
   13        0.789403
   14        0.999098
   15        1.660791
   16        1.800982
   17        2.209460
   18        3.347028
   19        7.356896
   20        7.443425
   21        7.790623
   22        8.997856
 
 -0.4000000E+00  0.4000000E+00  0.0000000E+00  0.1600000E-01
    1      -29.047598
    2      -29.038601
    3      -28.982296
    4      -16.571392
    5      -16.543834
    6      -16.396068
    7      -13.140137
    8      -12.437138
    9      -12.378064
   10       -0.922777
   11       -0.692297
   12       -0.266707
   13        0.783837
   14        1.006980
   15        1.693144
   16        1.770142
   17        2.213927
   18        3.343569
   19        7.327430
   20        7.452510
   21        7.803563
   22        8.995952
 
 -0.2000000E+00  0.4000000E+00  0.0000000E+00  0.1600000E-01
    1      -29.048695
    2      -28.997212
    3      -28.983564
    4      -16.624854
    5      -16.455663
    6      -16.405951
    7      -13.202887
    8      -12.679538
    9      -12.478333
   10       -0.631397
   11       -0.159002
   12        0.527921
   13        0.775860
   14        1.252078
   15        1.546181
   16        2.075363
   17        2.643345
   18        2.709480
   19        6.508323
   20        7.346459
   21        7.525578
   22        8.853357
 
  0.0000000E+00  0.0000000E+00  0.2000000E+00  0.1600000E-01
    1      -29.015046
    2      -28.980086
    3      -28.971849
    4      -16.540992
    5      -16.409646
    6      -16.394299
    7      -13.664225
    8      -12.792781
    9      -12.679574
   10        0.134906
   11        0.559717
   12        0.575065
   13        1.780133
   14        1.861690
   15        2.119017
   16        2.251208
   17        2.865701
   18        2.949334
   19        5.918660
   20        6.605190
   21        6.678979
   22        8.295032
 
  0.2000000E+00  0.0000000E+00  0.2000000E+00  0.1600000E-01
    1      -29.014226
    2      -28.998251
    3      -28.978568
    4      -16.540368
    5      -16.460972
    6      -16.402022
    7      -13.478235
    8      -12.736378
    9      -12.630245
   10       -0.045458
   11        0.341361
   12        0.590048
   13        1.035762
   14        1.623245
   15        1.992063
   16        2.306759
   17        2.690534
   18        2.734335
   19        6.434536
   20        6.673145
   21        6.817476
   22        8.771344
 
  0.4000000E+00  0.0000000E+00  0.2000000E+00  0.1600000E-01
    1      -29.040238
    2      -29.012229
    3      -28.976963
    4      -16.620117
    5      -16.476535
    6      -16.391389
    7      -13.192214
    8      -12.695894
    9      -12.472020
   10       -0.574757
   11       -0.071642
   12        0.466478
   13        0.748167
   14        1.167497
   15        1.548812
   16        2.119264
   17        2.533315
   18        2.730600
   19        6.706093
   20        7.267893
   21        7.493052
   22        8.882330
 
 -0.4000000E+00  0.0000000E+00  0.2000000E+00  0.1600000E-01
    1      -29.040316
    2      -29.012156
    3      -28.976960
    4      -16.618802
    5      -16.477296
    6      -16.391325
    7      -13.192663
    8      -12.694535
    9      -12.474199
   10       -0.613273
   11       -0.124995
   12        0.564763
   13        0.757082
   14        1.182855
   15        1.567112
   16        2.108283
   17        2.533052
   18        2.719644
   19        6.685311
   20        7.250742
   21        7.507831
   22        8.874079
 
 -0.2000000E+00  0.0000000E+00  0.2000000E+00  0.1600000E-01
    1      -29.014440
    2      -28.998053
    3      -28.978551
    4      -16.537164
    5      -16.463282
    6      -16.401868
    7      -13.477918
    8      -12.735308
    9      -12.633805
   10       -0.083858
   11        0.217950
   12        0.589443
   13        1.256392
   14        1.647341
   15        2.026739
   16        2.245622
   17        2.668338
   18        2.762459
   19        6.355641
   20        6.665628
   21        6.848623
   22        8.753969
 
  0.0000000E+00  0.2000000E+00  0.2000000E+00  0.1600000E-01
    1      -29.015112
    2      -29.005058
    3      -28.970975
    4      -16.547622
    5      -16.463972
    6      -16.389892
    7      -13.475229
    8      -12.742731
    9      -12.625927
   10       -0.041604
   11        0.389249
   12        0.574767
   13        0.958458
   14        1.609405
   15        2.038462
   16        2.282706
   17        2.663729
   18        2.722923
   19        6.526796
   20        6.650016
   21        6.824951
   22        8.743272
 
  0.2000000E+00  0.2000000E+00  0.2000000E+00  0.1600000E-01
    1      -29.014055
    2      -29.004487
    3      -28.996605
    4      -16.542979
    5      -16.450745
    6      -16.448721
    7      -13.299555
    8      -12.643783
    9      -12.635279
   10       -0.203241
   11        0.311047
   12        0.385663
   13        0.945770
   14        0.989699
   15        1.380960
   16        2.527305
   17        2.553753
   18        2.865214
   19        6.775189
   20        6.867688
   21        6.917424
   22        9.645387
 
  0.4000000E+00  0.2000000E+00  0.2000000E+00  0.1600000E-01
    1      -29.039258
    2      -29.012022
    3      -29.002272
    4      -16.592443
    5      -16.480356
    6      -16.428296
    7      -13.033527
    8      -12.656785
    9      -12.447690
   10       -0.599606
   11       -0.096630
   12        0.141602
   13        0.278430
   14        0.706278
   15        1.314423
   16        2.471571
   17        2.503925
   18        2.898316
   19        6.988162
   20        7.377941
   21        7.557171
   22        9.724381
 
 -0.4000000E+00  0.2000000E+00  0.2000000E+00  0.1600000E-01
    1      -29.039415
    2      -29.011981
    3      -29.002166
    4      -16.590225
    5      -16.481506
    6      -16.427886
    7      -13.034535
    8      -12.657827
    9      -12.448505
   10       -0.649113
   11       -0.165548
   12        0.100490
   13        0.376864
   14        0.774144
   15        1.358295
   16        2.500015
   17        2.533295
   18        2.839601
   19        6.972203
   20        7.336199
   21        7.580103
   22        9.726715
 
 -0.2000000E+00  0.2000000E+00  0.2000000E+00  0.1600000E-01
    1      -29.014179
    2      -29.005182
    3      -28.995796
    4      -16.539274
    5      -16.451857
    6      -16.448808
    7      -13.300473
    8      -12.645839
    9      -12.637104
   10       -0.229686
   11        0.180052
   12        0.302811
   13        0.954678
   14        1.125146
   15        1.574873
   16        2.553827
   17        2.657513
   18        2.753871
   19        6.605640
   20        6.913822
   21        6.934985
   22        9.475131
 
  0.0000000E+00  0.4000000E+00  0.2000000E+00  0.1600000E-01
    1      -29.048738
    2      -29.011658
    3      -28.969290
    4      -16.628714
    5      -16.472088
    6      -16.382444
    7      -13.180112
    8      -12.701869
    9      -12.476085
   10       -0.591218
   11       -0.102785
   12        0.506844
   13        0.674998
   14        1.141151
   15        1.548741
   16        2.181520
   17        2.491145
   18        2.741139
   19        6.684490
   20        7.358780
   21        7.483881
   22        8.862614
 
  0.2000000E+00  0.4000000E+00  0.2000000E+00  0.1600000E-01
    1      -29.047751
    2      -29.010675
    3      -28.995289
    4      -16.600037
    5      -16.468527
    6      -16.429056
    7      -13.028933
    8      -12.651441
    9      -12.457261
   10       -0.606543
   11       -0.154711
   12        0.103681
   13        0.299922
   14        0.716833
   15        1.350327
   16        2.478851
   17        2.518490
   18        2.895741
   19        6.932583
   20        7.454437
   21        7.533075
   22        9.704554
 
  0.4000000E+00  0.4000000E+00  0.2000000E+00  0.1600000E-01
    1      -29.046255
    2      -29.037467
    3      -29.008394
    4      -16.557643
    5      -16.524536
    6      -16.433407
    7      -12.909781
    8      -12.452453
    9      -12.400382
   10       -0.805994
   11       -0.606567
   12       -0.308526
   13        0.094421
   14        0.189267
   15        1.016329
   16        2.580283
   17        2.674051
   18        3.386213
   19        7.524476
   20        7.576331
   21        7.852574
   22        9.793227
 
 -0.4000000E+00  0.4000000E+00  0.2000000E+00  0.1600000E-01
    1      -29.046343
    2      -29.037543
    3      -29.008236
    4      -16.554565
    5      -16.526050
    6      -16.433342
    7      -12.912620
    8      -12.450732
    9      -12.402281
   10       -0.826356
   11       -0.665800
   12       -0.267067
   13        0.077930
   14        0.205240
   15        1.077957
   16        2.634823
   17        2.665128
   18        3.368071
   19        7.467315
   20        7.590182
   21        7.865260
   22        9.704880
 
 -0.2000000E+00  0.4000000E+00  0.2000000E+00  0.1600000E-01
    1      -29.047767
    2      -29.011171
    3      -28.994801
    4      -16.597990
    5      -16.467149
    6      -16.429788
    7      -13.033444
    8      -12.649160
    9      -12.460092
   10       -0.621416
   11       -0.237721
   12        0.109364
   13        0.322731
   14        0.661923
   15        1.507930
   16        2.514141
   17        2.630968
   18        2.825802
   19        6.822086
   20        7.436203
   21        7.555327
   22        9.685331
 
  0.0000000E+00 -0.4000000E+00  0.2000000E+00  0.1600000E-01
    1      -29.048852
    2      -29.011550
    3      -28.969288
    4      -16.626253
    5      -16.473469
    6      -16.382428
    7      -13.179737
    8      -12.699574
    9      -12.481269
   10       -0.660852
   11       -0.166383
   12        0.622600
   13        0.718190
   14        1.170288
   15        1.580835
   16        2.171809
   17        2.488314
   18        2.714156
   19        6.654686
   20        7.337955
   21        7.494583
   22        8.844391
 
  0.2000000E+00 -0.4000000E+00  0.2000000E+00  0.1600000E-01
    1      -29.047948
    2      -29.010553
    3      -28.995230
    4      -16.596829
    5      -16.470179
    6      -16.428410
    7      -13.029121
    8      -12.653530
    9      -12.459491
   10       -0.680944
   11       -0.222804
   12        0.054141
   13        0.408126
   14        0.818246
   15        1.411023
   16        2.515721
   17        2.559180
   18        2.813208
   19        6.911790
   20        7.393009
   21        7.562992
   22        9.694555
 
  0.4000000E+00 -0.4000000E+00  0.2000000E+00  0.1600000E-01
    1      -29.046582
    2      -29.037367
    3      -29.008183
    4      -16.553876
    5      -16.525412
    6      -16.433560
    7      -12.914049
    8      -12.449983
    9      -12.403841
   10       -0.827454
   11       -0.675351
   12       -0.282157
   13        0.053990
   14        0.228229
   15        1.120265
   16        2.647285
   17        2.676052
   18        3.360604
   19        7.470005
   20        7.566080
   21        7.864305
   22        9.665192
 
 -0.4000000E+00 -0.4000000E+00  0.2000000E+00  0.1600000E-01
    1      -29.046439
    2      -29.037662
    3      -29.008048
    4      -16.554325
    5      -16.523830
    6      -16.433825
    7      -12.914885
    8      -12.452434
    9      -12.402265
   10       -0.806592
   11       -0.643978
   12       -0.371480
   13        0.006121
   14        0.279885
   15        1.160138
   16        2.671353
   17        2.680590
   18        3.355039
   19        7.430469
   20        7.595934
   21        7.849356
   22        9.606547
 
 -0.2000000E+00 -0.4000000E+00  0.2000000E+00  0.1600000E-01
    1      -29.047894
    2      -29.011019
    3      -28.994834
    4      -16.596249
    5      -16.468154
    6      -16.429571
    7      -13.031928
    8      -12.651099
    9      -12.461851
   10       -0.656164
   11       -0.252819
   12        0.088315
   13        0.332352
   14        0.741495
   15        1.529506
   16        2.530453
   17        2.646034
   18        2.786369
   19        6.813361
   20        7.446425
   21        7.529862
   22        9.638956
 
  0.0000000E+00 -0.2000000E+00  0.2000000E+00  0.1600000E-01
    1      -29.015758
    2      -29.004419
    3      -28.970968
    4      -16.541054
    5      -16.468747
    6      -16.389852
    7      -13.473080
    8      -12.741758
    9      -12.633270
   10       -0.118522
   11        0.191958
   12        0.565002
   13        1.346601
   14        1.648636
   15        2.106074
   16        2.223785
   17        2.643739
   18        2.697527
   19        6.389853
   20        6.689326
   21        6.825992
   22        8.706971
 
  0.2000000E+00 -0.2000000E+00  0.2000000E+00  0.1600000E-01
    1      -29.014841
    2      -29.004301
    3      -28.996023
    4      -16.536438
    5      -16.455639
    6      -16.446651
    7      -13.299404
    8      -12.648449
    9      -12.638250
   10       -0.244194
   11        0.137015
   12        0.264828
   13        0.976423
   14        1.185360
   15        1.652078
   16        2.581712
   17        2.666233
   18        2.706276
   19        6.589125
   20        6.876702
   21        6.938858
   22        9.383641
 
  0.4000000E+00 -0.2000000E+00  0.2000000E+00  0.1600000E-01
    1      -29.039278
    2      -29.013285
    3      -29.001028
    4      -16.589223
    5      -16.477504
    6      -16.429840
    7      -13.040860
    8      -12.652821
    9      -12.453037
   10       -0.608919
   11       -0.222999
   12        0.132909
   13        0.305782
   14        0.620822
   15        1.576706
   16        2.532807
   17        2.661656
   18        2.800049
   19        6.806044
   20        7.378916
   21        7.558925
   22        9.658870
 
 -0.4000000E+00 -0.2000000E+00  0.2000000E+00  0.1600000E-01
    1      -29.039337
    2      -29.013200
    3      -29.001058
    4      -16.588679
    5      -16.477817
    6      -16.429836
    7      -13.040293
    8      -12.653403
    9      -12.453569
   10       -0.618545
   11       -0.225886
   12        0.123654
   13        0.302246
   14        0.652108
   15        1.582225
   16        2.537183
   17        2.664170
   18        2.789955
   19        6.803499
   20        7.381683
   21        7.552011
   22        9.639089
 
 -0.2000000E+00 -0.2000000E+00  0.2000000E+00  0.1600000E-01
    1      -29.015068
    2      -29.003992
    3      -28.996110
    4      -16.535368
    5      -16.455671
    6      -16.447292
    7      -13.298775
    8      -12.647548
    9      -12.640677
   10       -0.250163
   11        0.141263
   12        0.229219
   13        0.984373
   14        1.213284
   15        1.679504
   16        2.585202
   17        2.669685
   18        2.692168
   19        6.586732
   20        6.873108
   21        6.925635
   22        9.356998
 
  0.0000000E+00  0.0000000E+00  0.4000000E+00  0.1600000E-01
    1      -29.056839
    2      -28.978475
    3      -28.970149
    4      -16.670945
    5      -16.401861
    6      -16.387247
    7      -13.297413
    8      -12.776538
    9      -12.518697
   10       -0.629065
   11        0.619648
   12        0.637074
   13        1.139830
   14        1.308893
   15        1.392011
   16        1.736237
   17        2.792042
   18        2.895333
   19        6.008389
   20        7.433881
   21        7.563036
   22        8.289282
 
  0.2000000E+00  0.0000000E+00  0.4000000E+00  0.1600000E-01
    1      -29.056042
    2      -28.996782
    3      -28.977057
    4      -16.634999
    5      -16.450923
    6      -16.393439
    7      -13.193024
    8      -12.691964
    9      -12.471009
   10       -0.631920
   11       -0.169990
   12        0.516212
   13        0.670184
   14        1.209118
   15        1.542572
   16        2.135426
   17        2.626513
   18        2.700637
   19        6.504437
   20        7.445356
   21        7.543863
   22        8.842252
 
  0.4000000E+00  0.0000000E+00  0.4000000E+00  0.1600000E-01
    1      -29.054851
    2      -29.038475
    3      -28.975509
    4      -16.581657
    5      -16.540860
    6      -16.383541
    7      -13.119076
    8      -12.457986
    9      -12.373244
   10       -0.908410
   11       -0.665280
   12       -0.316000
   13        0.696444
   14        0.941288
   15        1.676275
   16        1.810249
   17        2.196891
   18        3.387508
   19        7.357435
   20        7.520463
   21        7.777084
   22        9.041774
 
 -0.4000000E+00  0.0000000E+00  0.4000000E+00  0.1600000E-01
    1      -29.054932
    2      -29.038389
    3      -28.975508
    4      -16.579097
    5      -16.543054
    6      -16.383515
    7      -13.120173
    8      -12.450618
    9      -12.380228
   10       -0.944872
   11       -0.702444
   12       -0.234840
   13        0.685800
   14        0.955516
   15        1.714694
   16        1.778319
   17        2.198735
   18        3.381118
   19        7.335468
   20        7.518679
   21        7.791891
   22        9.035708
 
 -0.2000000E+00  0.0000000E+00  0.4000000E+00  0.1600000E-01
    1      -29.056079
    2      -28.996751
    3      -28.977052
    4      -16.633955
    5      -16.451415
    6      -16.393355
    7      -13.193659
    8      -12.690154
    9      -12.473473
   10       -0.672998
   11       -0.198835
   12        0.575511
   13        0.696702
   14        1.223639
   15        1.556759
   16        2.124682
   17        2.621659
   18        2.699032
   19        6.487527
   20        7.415792
   21        7.565766
   22        8.836679
 
  0.0000000E+00  0.2000000E+00  0.4000000E+00  0.1600000E-01
    1      -29.056078
    2      -29.004587
    3      -28.969299
    4      -16.636620
    5      -16.458574
    6      -16.382745
    7      -13.182215
    8      -12.703919
    9      -12.469206
   10       -0.621596
   11       -0.158543
   12        0.528091
   13        0.631909
   14        1.165352
   15        1.552209
   16        2.188005
   17        2.536040
   18        2.720051
   19        6.577645
   20        7.437558
   21        7.535887
   22        8.847166
 
  0.2000000E+00  0.2000000E+00  0.4000000E+00  0.1600000E-01
    1      -29.055080
    2      -29.003600
    3      -28.995290
    4      -16.607946
    5      -16.454200
    6      -16.430735
    7      -13.026036
    8      -12.653692
    9      -12.455241
   10       -0.623835
   11       -0.211197
   12        0.037353
   13        0.337079
   14        0.763916
   15        1.351896
   16        2.489999
   17        2.507277
   18        2.891777
   19        6.895262
   20        7.513827
   21        7.542863
   22        9.692539
 
  0.4000000E+00  0.2000000E+00  0.4000000E+00  0.1600000E-01
    1      -29.053571
    2      -29.037234
    3      -29.001517
    4      -16.564267
    5      -16.522421
    6      -16.425399
    7      -12.895064
    8      -12.463374
    9      -12.400997
   10       -0.820825
   11       -0.603715
   12       -0.291799
   13        0.023170
   14        0.164808
   15        1.051140
   16        2.565002
   17        2.664981
   18        3.416884
   19        7.517189
   20        7.609984
   21        7.844270
   22        9.769475
 
 -0.4000000E+00  0.2000000E+00  0.4000000E+00  0.1600000E-01
    1      -29.053659
    2      -29.037234
    3      -29.001431
    4      -16.561119
    5      -16.524394
    6      -16.425205
    7      -12.897653
    8      -12.459204
    9      -12.405118
   10       -0.843515
   11       -0.677960
   12       -0.222458
   13        0.014605
   14        0.179812
   15        1.092925
   16        2.621691
   17        2.648122
   18        3.399508
   19        7.468710
   20        7.619878
   21        7.859892
   22        9.687895
 
 -0.2000000E+00  0.2000000E+00  0.4000000E+00  0.1600000E-01
    1      -29.055117
    2      -29.004180
    3      -28.994690
    4      -16.605956
    5      -16.453525
    6      -16.431136
    7      -13.029268
    8      -12.652227
    9      -12.457779
   10       -0.651028
   11       -0.283265
   12        0.052583
   13        0.358180
   14        0.736262
   15        1.473496
   16        2.518622
   17        2.615328
   18        2.817982
   19        6.808940
   20        7.478603
   21        7.580338
   22        9.674954
 
  0.0000000E+00  0.4000000E+00  0.4000000E+00  0.1600000E-01
    1      -29.055903
    2      -29.045465
    3      -28.967679
    4      -16.590859
    5      -16.536670
    6      -16.374855
    7      -13.097527
    8      -12.480467
    9      -12.370632
   10       -0.916470
   11       -0.647857
   12       -0.325210
   13        0.652967
   14        0.886666
   15        1.687589
   16        1.831608
   17        2.177003
   18        3.409552
   19        7.427791
   20        7.514352
   21        7.751664
   22        9.079123
 
  0.2000000E+00  0.4000000E+00  0.4000000E+00  0.1600000E-01
    1      -29.054587
    2      -29.044245
    3      -28.993626
    4      -16.572050
    5      -16.516473
    6      -16.420969
    7      -12.877462
    8      -12.478027
    9      -12.403345
   10       -0.834473
   11       -0.576015
   12       -0.306182
   13       -0.017008
   14        0.142404
   15        1.079221
   16        2.564109
   17        2.668685
   18        3.428551
   19        7.530489
   20        7.621876
   21        7.822100
   22        9.737863
 
  0.4000000E+00  0.4000000E+00  0.4000000E+00  0.1600000E-01
    1      -29.052514
    2      -29.042664
    3      -29.034765
    4      -16.539912
    5      -16.495397
    6      -16.481598
    7      -12.530572
    8      -12.458658
    9      -12.444525
   10       -0.857722
   11       -0.506226
   12       -0.476826
   13       -0.403864
   14       -0.257139
   15       -0.199976
   16        3.258428
   17        3.309389
   18        3.534246
   19        7.829313
   20        7.956504
   21        7.999123
   22        9.751794
 
 -0.4000000E+00  0.4000000E+00  0.4000000E+00  0.1600000E-01
    1      -29.052580
    2      -29.043070
    3      -29.034299
    4      -16.538035
    5      -16.496159
    6      -16.481441
    7      -12.539896
    8      -12.459162
    9      -12.437048
   10       -0.862175
   11       -0.598803
   12       -0.512847
   13       -0.435165
   14       -0.216534
   15       -0.062864
   16        3.290135
   17        3.365031
   18        3.470063
   19        7.810068
   20        7.957883
   21        8.013413
   22        9.572976
 
 -0.2000000E+00  0.4000000E+00  0.4000000E+00  0.1600000E-01
    1      -29.054619
    2      -29.044351
    3      -28.993508
    4      -16.570316
    5      -16.516094
    6      -16.420991
    7      -12.881090
    8      -12.477385
    9      -12.404293
   10       -0.833021
   11       -0.606187
   12       -0.348763
   13       -0.060791
   14        0.200392
   15        1.159533
   16        2.624946
   17        2.670683
   18        3.410487
   19        7.460546
   20        7.639620
   21        7.830266
   22        9.623719
 
  0.0000000E+00 -0.4000000E+00  0.4000000E+00  0.1600000E-01
    1      -29.056147
    2      -29.045215
    3      -28.967676
    4      -16.586839
    5      -16.539996
    6      -16.374851
    7      -13.099151
    8      -12.467359
    9      -12.383563
   10       -0.974743
   11       -0.712747
   12       -0.188016
   13        0.629852
   14        0.916645
   15        1.747542
   16        1.788976
   17        2.175298
   18        3.396116
   19        7.387853
   20        7.523463
   21        7.769068
   22        9.062198
 
  0.2000000E+00 -0.4000000E+00  0.4000000E+00  0.1600000E-01
    1      -29.054896
    2      -29.043994
    3      -28.993566
    4      -16.567919
    5      -16.519109
    6      -16.420654
    7      -12.880649
    8      -12.468838
    9      -12.412861