    5    5 1024    1
  0.1170210E+02  0.3882200E-09  0.3882200E-09  0.3882200E-09  0.5000000E-15
  1.000000000000000E-004
  CAR 
 unknown system                          
     36     19     22
 
  0.0000000E+00  0.0000000E+00  0.0000000E+00  0.8000000E-02
    1      -28.973983
    2      -28.973983
    3      -28.968098
    4      -16.456708
    5      -16.427404
    6      -16.427404
    7      -13.885237
    8      -12.787195
    9      -12.787195
   10        0.573081
   11        0.573081
   12        0.581821
   13        2.214233
   14        2.214233
   15        2.527407
   16        2.838772
   17        3.008089
   18        3.008089
   19        5.973053
   20        5.973053
   21        6.183282
   22        8.335721
 
  0.2000000E+00  0.0000000E+00  0.0000000E+00  0.4800000E-01
    1      -28.998591
    2      -28.972915
    3      -28.968578
    4      -16.538615
    5      -16.433877
    6      -16.420778
    7      -13.662992
    8      -12.783726
    9      -12.687549
   10        0.142142
   11        0.588483
   12        0.603257
   13        1.762573
   14        1.887604
   15        2.171656
   16        2.257290
   17        2.838574
   18        2.925845
   19        6.055151
   20        6.492604
   21        6.619270
   22        8.342466
 
  0.4000000E+00  0.0000000E+00  0.0000000E+00  0.4800000E-01
    1      -29.040262
    2      -28.971170
    3      -28.966975
    4      -16.674194
    5      -16.427485
    6      -16.410010
    7      -13.298060
    8      -12.772428
    9      -12.522028
   10       -0.589089
   11        0.696804
   12        0.713115
   13        1.092176
   14        1.308704
   15        1.423458
   16        1.757036
   17        2.720370
   18        2.846922
   19        6.148888
   20        7.314141
   21        7.535133
   22        8.335467
 
  0.2000000E+00  0.2000000E+00  0.0000000E+00  0.4800000E-01
    1      -28.999330
    2      -28.995572
    3      -28.969434
    4      -16.550086
    5      -16.478006
    6      -16.419844
    7      -13.476815
    8      -12.734160
    9      -12.631292
   10       -0.037550
   11        0.378396
   12        0.597300
   13        0.998655
   14        1.625304
   15        1.990337
   16        2.321101
   17        2.700175
   18        2.727477
   19        6.532242
   20        6.590695
   21        6.818091
   22        8.780557
 
  0.4000000E+00  0.2000000E+00  0.0000000E+00  0.9600000E-01
    1      -29.039464
    2      -28.995727
    3      -28.967828
    4      -16.639660
    5      -16.477772
    6      -16.410069
    7      -13.191906
    8      -12.692545
    9      -12.471117
   10       -0.595052
   11       -0.113185
   12        0.481014
   13        0.722381
   14        1.190296
   15        1.545809
   16        2.130276
   17        2.580308
   18        2.717704
   19        6.609543
   20        7.366615
   21        7.523457
   22        8.869269
 
 -0.4000000E+00  0.2000000E+00  0.0000000E+00  0.9600000E-01
    1      -29.039529
    2      -28.995668
    3      -28.967824
    4      -16.638113
    5      -16.478536
    6      -16.409951
    7      -13.192868
    8      -12.690465
    9      -12.474112
   10       -0.645945
   11       -0.164067
   12        0.586396
   13        0.739346
   14        1.209335
   15        1.568026
   16        2.116451
   17        2.578726
   18        2.707479
   19        6.585093
   20        7.336617
   21        7.546563
   22        8.860062
 
 -0.2000000E+00  0.2000000E+00  0.0000000E+00  0.4800000E-01
    1      -29.000290
    2      -28.994627
    3      -28.969417
    4      -16.545487
    5      -16.481355
    6      -16.419588
    7      -13.476701
    8      -12.732790
    9      -12.635949
   10       -0.087220
   11        0.214816
   12        0.599684
   13        1.287842
   14        1.655915
   15        2.036769
   16        2.240365
   17        2.667708
   18        2.766799
   19        6.380146
   20        6.636680
   21        6.853101
   22        8.757660
 
  0.4000000E+00  0.4000000E+00  0.0000000E+00  0.4800000E-01
    1      -29.040083
    2      -29.035912
    3      -28.966284
    4      -16.594762
    5      -16.553172
    6      -16.401232
    7      -13.119448
    8      -12.457615
    9      -12.370825
   10       -0.904414
   11       -0.650676
   12       -0.334835
   13        0.723701
   14        0.937432
   15        1.674028
   16        1.819688
   17        2.189640
   18        3.386343
   19        7.436277
   20        7.454228
   21        7.784390
   22        9.048002
 
 -0.4000000E+00  0.4000000E+00  0.0000000E+00  0.4800000E-01
    1      -29.040472
    2      -29.035518
    3      -28.966282
    4      -16.591488
    5      -16.555924
    6      -16.401190
    7      -13.121035
    8      -12.448146
    9      -12.379766
   10       -0.950624
   11       -0.700559
   12       -0.229073
   13        0.708740
   14        0.956965
   15        1.724057
   16        1.778906
   17        2.192457
   18        3.377736
   19        7.377573
   20        7.482197
   21        7.802823
   22        9.039891
 
  0.2000000E+00  0.2000000E+00  0.2000000E+00  0.1600000E-01
    1      -28.998157
    2      -28.998157
    3      -28.992198
    4      -16.553736
    5      -16.466287
    6      -16.466287
    7      -13.297515
    8      -12.638937
    9      -12.638937
   10       -0.193447
   11        0.367069
   12        0.367069
   13        0.964707
   14        0.964707
   15        1.343576
   16        2.532564
   17        2.532564
   18        2.888822
   19        6.863674
   20        6.864003
   21        6.864003
   22        9.699130
 
  0.4000000E+00  0.2000000E+00  0.2000000E+00  0.4800000E-01
    1      -29.038472
    2      -28.996257
    3      -28.992467
    4      -16.612750
    5      -16.481405
    6      -16.446056
    7      -13.027856
    8      -12.653826
    9      -12.451672
   10       -0.603593
   11       -0.139256
   12        0.090114
   13        0.302864
   14        0.734295
   15        1.321093
   16        2.477002
   17        2.497448
   18        2.912150
   19        6.955109
   20        7.453852
   21        7.558510
   22        9.716063
 
 -0.4000000E+00  0.2000000E+00  0.2000000E+00  0.4800000E-01
    1      -29.038650
    2      -28.996259
    3      -28.992303
    4      -16.609553
    5      -16.482862
    6      -16.445403
    7      -13.029291
    8      -12.655440
    9      -12.453467
   10       -0.680226
   11       -0.214116
   12        0.041683
   13        0.428921
   14        0.821139
   15        1.387949
   16        2.518567
   17        2.538839
   18        2.826450
   19        6.932534
   20        7.389188
   21        7.592855
   22        9.724819
 
 -0.2000000E+00  0.2000000E+00  0.2000000E+00  0.4800000E-01
    1      -28.999795
    2      -28.998162
    3      -28.990572
    4      -16.547089
    5      -16.469941
    6      -16.465246
    7      -13.298641
    8      -12.643292
    9      -12.641516
   10       -0.236539
   11        0.166135
   12        0.258185
   13        0.971348
   14        1.182766
   15        1.634282
   16        2.581223
   17        2.677509
   18        2.710744
   19        6.591294
   20        6.906122
   21        6.935978
   22        9.400971
 
  0.4000000E+00  0.4000000E+00  0.2000000E+00  0.4800000E-01
    1      -29.038745
    2      -29.034689
    3      -28.992400
    4      -16.577853
    5      -16.534295
    6      -16.442548
    7      -12.893474
    8      -12.462188
    9      -12.400835
   10       -0.816975
   11       -0.584238
   12       -0.311321
   13        0.045608
   14        0.155390
   15        1.037809
   16        2.564282
   17        2.671142
   18        3.419309
   19        7.550988
   20        7.600535
   21        7.849219
   22        9.780709
 
 -0.4000000E+00  0.4000000E+00  0.2000000E+00  0.9600000E-01
    1      -29.039255
    2      -29.034304
    3      -28.992282
    4      -16.573596
    5      -16.536304
    6      -16.442377
    7      -12.898033
    8      -12.456549
    9      -12.406569
   10       -0.847927
   11       -0.684759
   12       -0.228918
   13        0.026609
   14        0.183604
   15        1.112847
   16        2.636444
   17        2.662985
   18        3.392667
   19        7.483348
   20        7.608550
   21        7.868868
   22        9.656645
 
 -0.2000000E+00  0.4000000E+00  0.2000000E+00  0.9600000E-01
    1      -29.038537
    2      -28.997884
    3      -28.990807
    4      -16.609415
    5      -16.479704
    6      -16.447100
    7      -13.034165
    8      -12.650743
    9      -12.456238
   10       -0.635523
   11       -0.254573
   12        0.101499
   13        0.330499
   14        0.690835
   15        1.529325
   16        2.532713
   17        2.654650
   18        2.800107
   19        6.808877
   20        7.439696
   21        7.574706
   22        9.660963
 
 -0.4000000E+00 -0.4000000E+00  0.2000000E+00  0.4800000E-01
    1      -29.038750
    2      -29.034933
    3      -28.992180
    4      -16.574924
    5      -16.533708
    6      -16.442689
    7      -12.899375
    8      -12.461240
    9      -12.402401
   10       -0.815573
   11       -0.623841
   12       -0.372525
   13       -0.028900
   14        0.242799
   15        1.161928
   16        2.660323
   17        2.673364
   18        3.389187
   19        7.447040
   20        7.632581
   21        7.853384
   22        9.596236
 
  0.4000000E+00  0.4000000E+00  0.4000000E+00  0.1600000E-01
    1      -29.036582
    2      -29.036582
    3      -29.030394
    4      -16.553456
    5      -16.502554
    6      -16.502554
    7      -12.525369
    8      -12.452240
    9      -12.452240
   10       -0.845826
   11       -0.488887
   12       -0.488887
   13       -0.384026
   14       -0.250816
   15       -0.250816
   16        3.280060
   17        3.280060
   18        3.551563
   19        7.837325
   20        7.991606
   21        7.991606
   22        9.806460
 
 -0.4000000E+00  0.4000000E+00  0.4000000E+00  0.4800000E-01
    1      -29.037528
    2      -29.036583
    3      -29.029456
    4      -16.550756
    5      -16.503573
    6      -16.502179
    7      -12.542267
    8      -12.453201
    9      -12.438296
   10       -0.845934
   11       -0.635686
   12       -0.537893
   13       -0.436387
   14       -0.192868
   15       -0.039127
   16        3.325752
   17        3.365886
   18        3.456098
   19        7.816748
   20        7.984517
   21        8.014213
   22        9.519719
