 vasp.5.3.5 31Mar14 (build Dec 17 2015 22:09:37) complex                        
  
 executed on             LinuxIFC date 2017.03.19  05:28:58
 running on   22 total cores
 distrk:  each k-point on   22 cores,    1 groups
 distr:  one band on NCORES_PER_BAND=   1 cores,   22 groups


--------------------------------------------------------------------------------------------------------


 INCAR:
 POTCAR:    PAW_PBE Ti_pv 07Sep2000               
 POTCAR:    PAW_PBE Ca_pv 06Sep2000               
 POTCAR:    PAW_PBE O 08Apr2002                   

 ----------------------------------------------------------------------------- 
|                                                                             |
|           W    W    AA    RRRRR   N    N  II  N    N   GGGG   !!!           |
|           W    W   A  A   R    R  NN   N  II  NN   N  G    G  !!!           |
|           W    W  A    A  R    R  N N  N  II  N N  N  G       !!!           |
|           W WW W  AAAAAA  RRRRR   N  N N  II  N  N N  G  GGG   !            |
|           WW  WW  A    A  R   R   N   NN  II  N   NN  G    G                |
|           W    W  A    A  R    R  N    N  II  N    N   GGGG   !!!           |
|                                                                             |
|      For optimal performance we recommend to set                            |
|        NCORE= 4 - approx SQRT( number of cores)                             |
|      NCORE specifies how many cores store one orbital (NPAR=cpu/NCORE).     |
|      This setting can  greatly improve the performance of VASP for DFT.     |
|      The default, NPAR=number of cores might be grossly inefficient         |
|      on modern multi-core architectures or massively parallel machines.     |
|      Do your own testing !!!!                                               |
|      Unfortunately you need to use the default for GW and RPA calculations. |
|      (for HF NCORE is supported but not extensively tested yet)             |
|                                                                             |
 ----------------------------------------------------------------------------- 

 POTCAR:    PAW_PBE Ti_pv 07Sep2000               
   VRHFIN =Ti: d3 s1                                                            
   LEXCH  = PE                                                                  
   EATOM  =  1042.5995 eV,   76.6289 Ry                                         
                                                                                
   TITEL  = PAW_PBE Ti_pv 07Sep2000                                             
   LULTRA =        F    use ultrasoft PP ?                                      
   IUNSCR =        1    unscreen: 0-lin 1-nonlin 2-no                           
   RPACOR =    2.200    partial core radius                                     
   POMASS =   47.880; ZVAL   =   10.000    mass and valenz                      
   RCORE  =    2.500    outmost cutoff radius                                   
   RWIGS  =    2.500; RWIGS  =    1.323    wigner-seitz radius (au A)           
   ENMAX  =  222.335; ENMIN  =  166.751 eV                                      
   RCLOC  =    1.701    cutoff for local pot                                    
   LCOR   =        T    correct aug charges                                     
   LPAW   =        T    paw PP                                                  
   EAUG   =  482.848                                                            
   DEXC   =    0.000                                                            
   RMAX   =    2.564    core radius for proj-oper                               
   RAUG   =    1.300    factor for augmentation sphere                          
   RDEP   =    2.538    radius for radial grids                                 
   RDEPT  =    1.952    core radius for aug-charge                              
                                                                                
   Atomic configuration                                                         
    8 entries                                                                   
     n  l   j            E        occ.                                          
     1  0  0.50     -4865.3608   2.0000                                         
     2  0  0.50      -533.1368   2.0000                                         
     2  1  1.50      -440.5031   6.0000                                         
     3  0  0.50       -59.3186   2.0000                                         
     3  1  1.50       -35.7012   6.0000                                         
     3  2  2.50        -1.9157   3.0000                                         
     4  0  0.50        -3.7291   1.0000                                         
     4  3  2.50        -1.3606   0.0000                                         
   Description                                                                  
     l       E           TYP  RCUT    TYP  RCUT                                 
     1    -35.7012140     23  2.300                                             
     1     -1.3605826     23  2.300                                             
     2     -1.9156996     23  2.500                                             
     2     -0.4063033     23  2.500                                             
     0     -3.7290856     23  2.500                                             
     0     20.4087390     23  2.500                                             
  local pseudopotential read in
  partial core-charges read in
  partial kinetic energy density read in
  atomic valenz-charges read in
  non local Contribution for L=           1  read in
    real space projection operators read in
  non local Contribution for L=           1  read in
    real space projection operators read in
  non local Contribution for L=           2  read in
    real space projection operators read in
  non local Contribution for L=           2  read in
    real space projection operators read in
  non local Contribution for L=           0  read in
    real space projection operators read in
  non local Contribution for L=           0  read in
    real space projection operators read in
    PAW grid and wavefunctions read in
 
   number of l-projection  operators is LMAX  =           6
   number of lm-projection operators is LMMAX =          18
 
 POTCAR:    PAW_PBE Ca_pv 06Sep2000               
   VRHFIN =Ca: p6s2d0.01                                                        
   LEXCH  = PE                                                                  
   EATOM  =   612.6676 eV,   45.0298 Ry                                         
                                                                                
   TITEL  = PAW_PBE Ca_pv 06Sep2000                                             
   LULTRA =        F    use ultrasoft PP ?                                      
   IUNSCR =        1    unscreen: 0-lin 1-nonlin 2-no                           
   RPACOR =    2.300    partial core radius                                     
   POMASS =   40.078; ZVAL   =    8.000    mass and valenz                      
   RCORE  =    3.000    outmost cutoff radius                                   
   RWIGS  =    3.300; RWIGS  =    1.746    wigner-seitz radius (au A)           
   ENMAX  =  119.559; ENMIN  =   89.670 eV                                      
   RCLOC  =    1.709    cutoff for local pot                                    
   LCOR   =        T    correct aug charges                                     
   LPAW   =        T    paw PP                                                  
   EAUG   =  325.799                                                            
   DEXC   =    0.000                                                            
   RMAX   =    3.072    core radius for proj-oper                               
   RAUG   =    1.300    factor for augmentation sphere                          
   RDEP   =    3.090    radius for radial grids                                 
   RDEPT  =    2.377    core radius for aug-charge                              
                                                                                
   Atomic configuration                                                         
    7 entries                                                                   
     n  l   j            E        occ.                                          
     1  0  0.50     -3949.1705   2.0000                                         
     2  0  0.50      -414.3434   2.0000                                         
     2  1  1.50      -334.7047   6.0000                                         
     3  0  0.50       -47.0896   2.0000                                         
     3  1  1.50       -28.0061   6.0000                                         
     4  0  0.50        -3.7663   2.0000                                         
     3  2  1.50        -4.0817   0.0000                                         
   Description                                                                  
     l       E           TYP  RCUT    TYP  RCUT                                 
     1    -28.0060855     23  3.000                                             
     1      1.3605826     23  3.000                                             
     0     -3.7663320     23  3.000                                             
     0      4.1207953     23  3.000                                             
     2     -4.0817478     23  3.000                                             
     2     -0.8716232     23  3.000                                             
  local pseudopotential read in
  partial core-charges read in
  partial kinetic energy density read in
  atomic valenz-charges read in
  non local Contribution for L=           1  read in
    real space projection operators read in
  non local Contribution for L=           1  read in
    real space projection operators read in
  non local Contribution for L=           0  read in
    real space projection operators read in
  non local Contribution for L=           0  read in
    real space projection operators read in
  non local Contribution for L=           2  read in
    real space projection operators read in
  non local Contribution for L=           2  read in
    real space projection operators read in
    PAW grid and wavefunctions read in
 
   number of l-projection  operators is LMAX  =           6
   number of lm-projection operators is LMMAX =          18
 
 POTCAR:    PAW_PBE O 08Apr2002                   
   VRHFIN =O: s2p4                                                              
   LEXCH  = PE                                                                  
   EATOM  =   432.3788 eV,   31.7789 Ry                                         
                                                                                
   TITEL  = PAW_PBE O 08Apr2002                                                 
   LULTRA =        F    use ultrasoft PP ?                                      
   IUNSCR =        1    unscreen: 0-lin 1-nonlin 2-no                           
   RPACOR =    1.200    partial core radius                                     
   POMASS =   16.000; ZVAL   =    6.000    mass and valenz                      
   RCORE  =    1.520    outmost cutoff radius                                   
   RWIGS  =    1.550; RWIGS  =    0.820    wigner-seitz radius (au A)           
   ENMAX  =  400.000; ENMIN  =  300.000 eV                                      
   ICORE  =        2    local potential                                         
   LCOR   =        T    correct aug charges                                     
   LPAW   =        T    paw PP                                                  
   EAUG   =  605.392                                                            
   DEXC   =    0.000                                                            
   RMAX   =    1.553    core radius for proj-oper                               
   RAUG   =    1.300    factor for augmentation sphere                          
   RDEP   =    1.550    radius for radial grids                                 
   RDEPT  =    1.329    core radius for aug-charge                              
                                                                                
   Atomic configuration                                                         
    4 entries                                                                   
     n  l   j            E        occ.                                          
     1  0  0.50      -514.6923   2.0000                                         
     2  0  0.50       -23.9615   2.0000                                         
     2  1  0.50        -9.0305   4.0000                                         
     3  2  1.50        -9.5241   0.0000                                         
   Description                                                                  
     l       E           TYP  RCUT    TYP  RCUT                                 
     0    -23.9615318     23  1.200                                             
     0     -9.5240782     23  1.200                                             
     1     -9.0304911     23  1.520                                             
     1      8.1634956     23  1.520                                             
     2     -9.5240782      7  1.500                                             
  local pseudopotential read in
  partial core-charges read in
  partial kinetic energy density read in
  kinetic energy density of atom read in
  atomic valenz-charges read in
  non local Contribution for L=           0  read in
    real space projection operators read in
  non local Contribution for L=           0  read in
    real space projection operators read in
  non local Contribution for L=           1  read in
    real space projection operators read in
  non local Contribution for L=           1  read in
    real space projection operators read in
    PAW grid and wavefunctions read in
 
   number of l-projection  operators is LMAX  =           4
   number of lm-projection operators is LMMAX =           8
 
  PAW_PBE Ti_pv 07Sep2000               :
 energy of atom  1       EATOM=-1042.5995
 kinetic energy error for atom=    0.0037 (will be added to EATOM!!)
  PAW_PBE Ca_pv 06Sep2000               :
 energy of atom  2       EATOM= -612.6676
 kinetic energy error for atom=    0.0002 (will be added to EATOM!!)
  PAW_PBE O 08Apr2002                   :
 energy of atom  3       EATOM= -432.3788
 kinetic energy error for atom=    0.1156 (will be added to EATOM!!)
 
 
 POSCAR: CaTiO3                                  
  positions in direct lattice
  velocities in cartesian coordinates
  No initial velocities read in
 exchange correlation table for  LEXCH =        8
   RHO(1)=    0.500       N(1)  =     2000
   RHO(2)=  100.500       N(2)  =     4000

 VTST: version 3.1, (03/28/14)

 CHAIN: initializing optimizer
 
 OPT: Using VASP Conjugate-Gradient optimizer
 CHAIN: Read ICHAIN            0
 
 POSCAR: CaTiO3                                  
  positions in direct lattice
  velocities in cartesian coordinates
  No initial velocities read in
 


--------------------------------------------------------------------------------------------------------


 ion  position               nearest neighbor table
   1  0.000  0.000  0.000-   3 1.94   4 1.94   5 1.94   5 1.94   4 1.94   3 1.94   2 3.23   2 3.27
                             2 3.32   2 3.37   2 3.37   2 3.41   2 3.45   2 3.50
   2  0.510  0.520  0.530-   3 2.61   4 2.64   5 2.67   4 2.69   5 2.72   3 2.72   3 2.78   5 2.78
                             4 2.80   5 2.83   4 2.86   3 2.88   1 3.23   1 3.27   1 3.32   1 3.37
   3  0.500  0.000  0.000-   1 1.94   1 1.94   2 2.61   2 2.72   2 2.78   2 2.88
   4  0.000  0.500  0.000-   1 1.94   1 1.94   2 2.64   2 2.69   2 2.80   2 2.86
   5  0.000  0.000  0.500-   1 1.94   1 1.94   2 2.67   2 2.72   2 2.78   2 2.83
 
  LATTYP: Found a simple cubic cell.
 ALAT       =     3.8822000000
  
  Lattice vectors:
  
 A1 = (   3.8822000000,   0.0000000000,   0.0000000000)
 A2 = (   0.0000000000,   3.8822000000,   0.0000000000)
 A3 = (   0.0000000000,   0.0000000000,   3.8822000000)


Analysis of symmetry for initial positions (statically):
=====================================================================
 Subroutine PRICEL returns:
 Original cell was already a primitive cell.
 

 Routine SETGRP: Setting up the symmetry group for a 
 simple cubic supercell.


 Subroutine GETGRP returns: Found  1 space group operations
 (whereof  1 operations were pure point group operations)
 out of a pool of 48 trial point group operations.


The static configuration has the point symmetry C_1 .


Analysis of symmetry for dynamics (positions and initial velocities):
=====================================================================
 Subroutine PRICEL returns:
 Original cell was already a primitive cell.
 

 Routine SETGRP: Setting up the symmetry group for a 
 simple cubic supercell.


 Subroutine GETGRP returns: Found  1 space group operations
 (whereof  1 operations were pure point group operations)
 out of a pool of 48 trial point group operations.


The dynamic configuration has the point symmetry C_1 .
 
 
 KPOINTS: k-points                                

Automatic generation of k-mesh.
Space group operators:
 irot       det(A)        alpha          n_x          n_y          n_z        tau_x        tau_y        tau_z
    1     1.000000     0.000000     1.000000     0.000000     0.000000     0.000000     0.000000     0.000000
 
 Subroutine IBZKPT returns following result:
 ===========================================
 
 Found     63 irreducible k-points:
 
 Following reciprocal coordinates:
            Coordinates               Weight
  0.000000  0.000000  0.000000      1.000000
  0.200000  0.000000  0.000000      2.000000
  0.400000  0.000000  0.000000      2.000000
  0.000000  0.200000  0.000000      2.000000
  0.200000  0.200000  0.000000      2.000000
  0.400000  0.200000  0.000000      2.000000
 -0.400000  0.200000  0.000000      2.000000
 -0.200000  0.200000  0.000000      2.000000
  0.000000  0.400000  0.000000      2.000000
  0.200000  0.400000  0.000000      2.000000
  0.400000  0.400000  0.000000      2.000000
 -0.400000  0.400000  0.000000      2.000000
 -0.200000  0.400000  0.000000      2.000000
  0.000000  0.000000  0.200000      2.000000
  0.200000  0.000000  0.200000      2.000000
  0.400000  0.000000  0.200000      2.000000
 -0.400000  0.000000  0.200000      2.000000
 -0.200000  0.000000  0.200000      2.000000
  0.000000  0.200000  0.200000      2.000000
  0.200000  0.200000  0.200000      2.000000
  0.400000  0.200000  0.200000      2.000000
 -0.400000  0.200000  0.200000      2.000000
 -0.200000  0.200000  0.200000      2.000000
  0.000000  0.400000  0.200000      2.000000
  0.200000  0.400000  0.200000      2.000000
  0.400000  0.400000  0.200000      2.000000
 -0.400000  0.400000  0.200000      2.000000
 -0.200000  0.400000  0.200000      2.000000
  0.000000 -0.400000  0.200000      2.000000
  0.200000 -0.400000  0.200000      2.000000
  0.400000 -0.400000  0.200000      2.000000
 -0.400000 -0.400000  0.200000      2.000000
 -0.200000 -0.400000  0.200000      2.000000
  0.000000 -0.200000  0.200000      2.000000
  0.200000 -0.200000  0.200000      2.000000
  0.400000 -0.200000  0.200000      2.000000
 -0.400000 -0.200000  0.200000      2.000000
 -0.200000 -0.200000  0.200000      2.000000
  0.000000  0.000000  0.400000      2.000000
  0.200000  0.000000  0.400000      2.000000
  0.400000  0.000000  0.400000      2.000000
 -0.400000  0.000000  0.400000      2.000000
 -0.200000  0.000000  0.400000      2.000000
  0.000000  0.200000  0.400000      2.000000
  0.200000  0.200000  0.400000      2.000000
  0.400000  0.200000  0.400000      2.000000
 -0.400000  0.200000  0.400000      2.000000
 -0.200000  0.200000  0.400000      2.000000
  0.000000  0.400000  0.400000      2.000000
  0.200000  0.400000  0.400000      2.000000
  0.400000  0.400000  0.400000      2.000000
 -0.400000  0.400000  0.400000      2.000000
 -0.200000  0.400000  0.400000      2.000000
  0.000000 -0.400000  0.400000      2.000000
  0.200000 -0.400000  0.400000      2.000000
  0.400000 -0.400000  0.400000      2.000000
 -0.400000 -0.400000  0.400000      2.000000
 -0.200000 -0.400000  0.400000      2.000000
  0.000000 -0.200000  0.400000      2.000000
  0.200000 -0.200000  0.400000      2.000000
  0.400000 -0.200000  0.400000      2.000000
 -0.400000 -0.200000  0.400000      2.000000
 -0.200000 -0.200000  0.400000      2.000000
 
 Following cartesian coordinates:
            Coordinates               Weight
  0.000000  0.000000  0.000000      1.000000
  0.200000  0.000000  0.000000      2.000000
  0.400000  0.000000  0.000000      2.000000
  0.000000  0.200000  0.000000      2.000000
  0.200000  0.200000  0.000000      2.000000
  0.400000  0.200000  0.000000      2.000000
 -0.400000  0.200000  0.000000      2.000000
 -0.200000  0.200000  0.000000      2.000000
  0.000000  0.400000  0.000000      2.000000
  0.200000  0.400000  0.000000      2.000000
  0.400000  0.400000  0.000000      2.000000
 -0.400000  0.400000  0.000000      2.000000
 -0.200000  0.400000  0.000000      2.000000
  0.000000  0.000000  0.200000      2.000000
  0.200000  0.000000  0.200000      2.000000
  0.400000  0.000000  0.200000      2.000000
 -0.400000  0.000000  0.200000      2.000000
 -0.200000  0.000000  0.200000      2.000000
  0.000000  0.200000  0.200000      2.000000
  0.200000  0.200000  0.200000      2.000000
  0.400000  0.200000  0.200000      2.000000
 -0.400000  0.200000  0.200000      2.000000
 -0.200000  0.200000  0.200000      2.000000
  0.000000  0.400000  0.200000      2.000000
  0.200000  0.400000  0.200000      2.000000
  0.400000  0.400000  0.200000      2.000000
 -0.400000  0.400000  0.200000      2.000000
 -0.200000  0.400000  0.200000      2.000000
  0.000000 -0.400000  0.200000      2.000000
  0.200000 -0.400000  0.200000      2.000000
  0.400000 -0.400000  0.200000      2.000000
 -0.400000 -0.400000  0.200000      2.000000
 -0.200000 -0.400000  0.200000      2.000000
  0.000000 -0.200000  0.200000      2.000000
  0.200000 -0.200000  0.200000      2.000000
  0.400000 -0.200000  0.200000      2.000000
 -0.400000 -0.200000  0.200000      2.000000
 -0.200000 -0.200000  0.200000      2.000000
  0.000000  0.000000  0.400000      2.000000
  0.200000  0.000000  0.400000      2.000000
  0.400000  0.000000  0.400000      2.000000
 -0.400000  0.000000  0.400000      2.000000
 -0.200000  0.000000  0.400000      2.000000
  0.000000  0.200000  0.400000      2.000000
  0.200000  0.200000  0.400000      2.000000
  0.400000  0.200000  0.400000      2.000000
 -0.400000  0.200000  0.400000      2.000000
 -0.200000  0.200000  0.400000      2.000000
  0.000000  0.400000  0.400000      2.000000
  0.200000  0.400000  0.400000      2.000000
  0.400000  0.400000  0.400000      2.000000
 -0.400000  0.400000  0.400000      2.000000
 -0.200000  0.400000  0.400000      2.000000
  0.000000 -0.400000  0.400000      2.000000
  0.200000 -0.400000  0.400000      2.000000
  0.400000 -0.400000  0.400000      2.000000
 -0.400000 -0.400000  0.400000      2.000000
 -0.200000 -0.400000  0.400000      2.000000
  0.000000 -0.200000  0.400000      2.000000
  0.200000 -0.200000  0.400000      2.000000
  0.400000 -0.200000  0.400000      2.000000
 -0.400000 -0.200000  0.400000      2.000000
 -0.200000 -0.200000  0.400000      2.000000
 


--------------------------------------------------------------------------------------------------------




 Dimension of arrays:
   k-points           NKPTS =     63   k-points in BZ     NKDIM =     63   number of bands    NBANDS=     22
   number of dos      NEDOS =    301   number of ions     NIONS =      5
   non local maximal  LDIM  =      6   non local SUM 2l+1 LMDIM =     18
   total plane-waves  NPLWV =   8000
   max r-space proj   IRMAX =      1   max aug-charges    IRDMAX=   9776
   dimension x,y,z NGX =    20 NGY =   20 NGZ =   20
   dimension x,y,z NGXF=    40 NGYF=   40 NGZF=   40
   support grid    NGXF=    40 NGYF=   40 NGZF=   40
   ions per type =               1   1   3
 NGX,Y,Z   is equivalent  to a cutoff of   8.56,  8.56,  8.56 a.u.
 NGXF,Y,Z  is equivalent  to a cutoff of  17.13, 17.13, 17.13 a.u.


 I would recommend the setting:
   dimension x,y,z NGX =    19 NGY =   19 NGZ =   19
 SYSTEM =  unknown system                          
 POSCAR =  CaTiO3                                  

 Startparameter for this run:
   NWRITE =      2    write-flag & timer
   PREC   = normal    normal or accurate (medium, high low for compatibility)
   ISTART =      1    job   : 0-new  1-cont  2-samecut
   ICHARG =      0    charge: 1-file 2-atom 10-const
   ISPIN  =      1    spin polarized calculation?
   LNONCOLLINEAR =      F non collinear calculations
   LSORBIT =      F    spin-orbit coupling
   INIWAV =      1    electr: 0-lowe 1-rand  2-diag
   LASPH  =      F    aspherical Exc in radial PAW
   METAGGA=      F    non-selfconsistent MetaGGA calc.

 Electronic Relaxation 1
   ENCUT  =  400.0 eV  29.40 Ry    5.42 a.u.   6.33  6.33  6.33*2*pi/ulx,y,z
   ENINI  =  400.0     initial cutoff
   ENAUG  =  605.4 eV  augmentation charge cutoff
   NELM   =     60;   NELMIN=  2; NELMDL=  0     # of ELM steps 
   EDIFF  = 0.1E-03   stopping-criterion for ELM
   LREAL  =      F    real-space projection
   NLSPLINE    = F    spline interpolate recip. space projectors
   LCOMPAT=      F    compatible to vasp.4.4
   GGA_COMPAT  = T    GGA compatible to vasp.4.4-vasp.4.6
   LMAXPAW     = -100 max onsite density
   LMAXMIX     =    2 max onsite mixed and CHGCAR
   VOSKOWN=      0    Vosko Wilk Nusair interpolation
   ROPT   =    0.00000   0.00000   0.00000
 Ionic relaxation
   EDIFFG = 0.1E-02   stopping-criterion for IOM
   NSW    =   1024    number of steps for IOM
   NBLOCK =      1;   KBLOCK =   1024    inner block; outer block 
   IBRION =      2    ionic relax: 0-MD 1-quasi-New 2-CG
   NFREE  =      1    steps in history (QN), initial steepest desc. (CG)
   ISIF   =      2    stress and relaxation
   IWAVPR =     11    prediction:  0-non 1-charg 2-wave 3-comb
   ISYM   =      2    0-nonsym 1-usesym 2-fastsym
   LCORR  =      T    Harris-Foulkes like correction to forces

   POTIM  = 0.5000    time-step for ionic-motion
   TEIN   =    0.0    initial temperature
   TEBEG  =    0.0;   TEEND  =   0.0 temperature during run
   SMASS  =  -3.00    Nose mass-parameter (am)
   estimated Nose-frequenzy (Omega)   =  0.10E-29 period in steps =****** mass=  -0.344E-27a.u.
   SCALEE = 1.0000    scale energy and forces
   NPACO  =    256;   APACO  = 16.0  distance and # of slots for P.C.
   PSTRESS=    0.0 pullay stress

  Mass of Ions in am
   POMASS =  47.88 40.08 16.00
  Ionic Valenz
   ZVAL   =  10.00  8.00  6.00
  Atomic Wigner-Seitz radii
   RWIGS  =  -1.00 -1.00 -1.00
  virtual crystal weights 
   VCA    =   1.00  1.00  1.00
   NELECT =      36.0000    total number of electrons
   NUPDOWN=      -1.0000    fix difference up-down

 DOS related values:
   EMIN   =  10.00;   EMAX   =-10.00  energy-range for DOS
   EFERMI =   0.00
   ISMEAR =     1;   SIGMA  =   0.20  broadening in eV -4-tet -1-fermi 0-gaus

 Electronic relaxation 2 (details)
   IALGO  =     38    algorithm
   LDIAG  =      T    sub-space diagonalisation (order eigenvalues)
   LSUBROT=      F    optimize rotation matrix (better conditioning)
   TURBO    =      0    0=normal 1=particle mesh
   IRESTART =      0    0=no restart 2=restart with 2 vectors
   NREBOOT  =      0    no. of reboots
   NMIN     =      0    reboot dimension
   EREF     =   0.00    reference energy to select bands
   IMIX   =      4    mixing-type and parameters
     AMIX     =   0.40;   BMIX     =  1.00
     AMIX_MAG =   1.60;   BMIX_MAG =  1.00
     AMIN     =   0.10
     WC   =   100.;   INIMIX=   1;  MIXPRE=   1;  MAXMIX= -45

 Intra band minimization:
   WEIMIN = 0.0010     energy-eigenvalue tresh-hold
   EBREAK =  0.11E-05  absolut break condition
   DEPER  =   0.30     relativ break condition  

   TIME   =   0.40     timestep for ELM

  volume/ion in A,a.u.               =      11.70        78.97
  Fermi-wavevector in a.u.,A,eV,Ry     =   1.392401  2.631257 26.378723  1.938781
  Thomas-Fermi vector in A             =   2.516148
 
 Write flags
   LWAVE  =      T    write WAVECAR
   LCHARG =      T    write CHGCAR
   LVTOT  =      F    write LOCPOT, total local potential
   LVHAR  =      F    write LOCPOT, Hartree potential only
   LELF   =      F    write electronic localiz. function (ELF)
   LORBIT =      0    0 simple, 1 ext, 2 COOP (PROOUT)


 Dipole corrections
   LMONO  =      F    monopole corrections only (constant potential shift)
   LDIPOL =      F    correct potential (dipole corrections)
   IDIPOL =      0    1-x, 2-y, 3-z, 4-all directions 
   EPSILON=  1.0000000 bulk dielectric constant

 Exchange correlation treatment:
   GGA     =    --    GGA type
   LEXCH   =     8    internal setting for exchange type
   VOSKOWN=      0    Vosko Wilk Nusair interpolation
   LHFCALC =     F    Hartree Fock is set to
   LHFONE  =     F    Hartree Fock one center treatment
   AEXX    =    0.0000 exact exchange contribution

 Linear response parameters
   LEPSILON=     F    determine dielectric tensor
   LRPA    =     F    only Hartree local field effects (RPA)
   LNABLA  =     F    use nabla operator in PAW spheres
   LVEL    =     F    velocity operator in full k-point grid
   LINTERFAST=   F  fast interpolation
   KINTER  =     0    interpolate to denser k-point grid
   CSHIFT  =0.1000    complex shift for real part using Kramers Kronig
   OMEGAMAX=  -1.0    maximum frequency
   DEG_THRESHOLD= 0.2000000E-02 threshold for treating states as degnerate
   RTIME   =    0.100 relaxation time in fs

 Orbital magnetization related:
   ORBITALMAG=     F  switch on orbital magnetization
   LCHIMAG   =     F  perturbation theory with respect to B field
   DQ        =  0.001000  dq finite difference perturbation B field



--------------------------------------------------------------------------------------------------------


 conjugate gradient relaxation of ions
 charge density and potential will be updated during run
 non-spin polarized calculation
 Variant of blocked Davidson
 Davidson routine will perform the subspace rotation
 perform sub-space diagonalisation
    after iterative eigenvector-optimisation
 modified Broyden-mixing scheme, WC =      100.0
 initial mixing is a Kerker type mixing with AMIX =  0.4000 and BMIX =      1.0000
 Hartree-type preconditioning will be used
 using additional bands            4
 reciprocal scheme for non local part
 use partial core corrections
 calculate Harris-corrections to forces 
   (improved forces if not selfconsistent)
 use gradient corrections 
 use of overlap-Matrix (Vanderbilt PP)
 Methfessel and Paxton  Order N= 1 SIGMA  =   0.20


--------------------------------------------------------------------------------------------------------


  energy-cutoff  :      400.00
  volume of cell :       58.51
      direct lattice vectors                 reciprocal lattice vectors
     3.882200000  0.000000000  0.000000000     0.257585905  0.000000000  0.000000000
     0.000000000  3.882200000  0.000000000     0.000000000  0.257585905  0.000000000
     0.000000000  0.000000000  3.882200000     0.000000000  0.000000000  0.257585905

  length of vectors
     3.882200000  3.882200000  3.882200000     0.257585905  0.257585905  0.257585905


 
 old parameters found on file WAVECAR:
  energy-cutoff  :      400.00
  volume of cell :       58.51
      direct lattice vectors                 reciprocal lattice vectors
     3.882200000  0.000000000  0.000000000     0.257585905  0.000000000  0.000000000
     0.000000000  3.882200000  0.000000000     0.000000000  0.257585905  0.000000000
     0.000000000  0.000000000  3.882200000     0.000000000  0.000000000  0.257585905

  length of vectors

 
 k-points in units of 2pi/SCALE and weight: k-points                                
   0.00000000  0.00000000  0.00000000       0.008
   0.20000000  0.00000000  0.00000000       0.016
   0.40000000  0.00000000  0.00000000       0.016
   0.00000000  0.20000000  0.00000000       0.016
   0.20000000  0.20000000  0.00000000       0.016
   0.40000000  0.20000000  0.00000000       0.016
  -0.40000000  0.20000000  0.00000000       0.016
  -0.20000000  0.20000000  0.00000000       0.016
   0.00000000  0.40000000  0.00000000       0.016
   0.20000000  0.40000000  0.00000000       0.016
   0.40000000  0.40000000  0.00000000       0.016
  -0.40000000  0.40000000  0.00000000       0.016
  -0.20000000  0.40000000  0.00000000       0.016
   0.00000000  0.00000000  0.20000000       0.016
   0.20000000  0.00000000  0.20000000       0.016
   0.40000000  0.00000000  0.20000000       0.016
  -0.40000000  0.00000000  0.20000000       0.016
  -0.20000000  0.00000000  0.20000000       0.016
   0.00000000  0.20000000  0.20000000       0.016
   0.20000000  0.20000000  0.20000000       0.016
   0.40000000  0.20000000  0.20000000       0.016
  -0.40000000  0.20000000  0.20000000       0.016
  -0.20000000  0.20000000  0.20000000       0.016
   0.00000000  0.40000000  0.20000000       0.016
   0.20000000  0.40000000  0.20000000       0.016
   0.40000000  0.40000000  0.20000000       0.016
  -0.40000000  0.40000000  0.20000000       0.016
  -0.20000000  0.40000000  0.20000000       0.016
   0.00000000 -0.40000000  0.20000000       0.016
   0.20000000 -0.40000000  0.20000000       0.016
   0.40000000 -0.40000000  0.20000000       0.016
  -0.40000000 -0.40000000  0.20000000       0.016
  -0.20000000 -0.40000000  0.20000000       0.016
   0.00000000 -0.20000000  0.20000000       0.016
   0.20000000 -0.20000000  0.20000000       0.016
   0.40000000 -0.20000000  0.20000000       0.016
  -0.40000000 -0.20000000  0.20000000       0.016
  -0.20000000 -0.20000000  0.20000000       0.016
   0.00000000  0.00000000  0.40000000       0.016
   0.20000000  0.00000000  0.40000000       0.016
   0.40000000  0.00000000  0.40000000       0.016
  -0.40000000  0.00000000  0.40000000       0.016
  -0.20000000  0.00000000  0.40000000       0.016
   0.00000000  0.20000000  0.40000000       0.016
   0.20000000  0.20000000  0.40000000       0.016
   0.40000000  0.20000000  0.40000000       0.016
  -0.40000000  0.20000000  0.40000000       0.016
  -0.20000000  0.20000000  0.40000000       0.016
   0.00000000  0.40000000  0.40000000       0.016
   0.20000000  0.40000000  0.40000000       0.016
   0.40000000  0.40000000  0.40000000       0.016
  -0.40000000  0.40000000  0.40000000       0.016
  -0.20000000  0.40000000  0.40000000       0.016
   0.00000000 -0.40000000  0.40000000       0.016
   0.20000000 -0.40000000  0.40000000       0.016
   0.40000000 -0.40000000  0.40000000       0.016
  -0.40000000 -0.40000000  0.40000000       0.016
  -0.20000000 -0.40000000  0.40000000       0.016
   0.00000000 -0.20000000  0.40000000       0.016
   0.20000000 -0.20000000  0.40000000       0.016
   0.40000000 -0.20000000  0.40000000       0.016
  -0.40000000 -0.20000000  0.40000000       0.016
  -0.20000000 -0.20000000  0.40000000       0.016
 
 k-points in reciprocal lattice and weights: k-points                                
   0.00000000  0.00000000  0.00000000       0.008
   0.20000000  0.00000000  0.00000000       0.016
   0.40000000  0.00000000  0.00000000       0.016
   0.00000000  0.20000000  0.00000000       0.016
   0.20000000  0.20000000  0.00000000       0.016
   0.40000000  0.20000000  0.00000000       0.016
  -0.40000000  0.20000000  0.00000000       0.016
  -0.20000000  0.20000000  0.00000000       0.016
   0.00000000  0.40000000  0.00000000       0.016
   0.20000000  0.40000000  0.00000000       0.016
   0.40000000  0.40000000  0.00000000       0.016
  -0.40000000  0.40000000  0.00000000       0.016
  -0.20000000  0.40000000  0.00000000       0.016
   0.00000000  0.00000000  0.20000000       0.016
   0.20000000  0.00000000  0.20000000       0.016
   0.40000000  0.00000000  0.20000000       0.016
  -0.40000000  0.00000000  0.20000000       0.016
  -0.20000000  0.00000000  0.20000000       0.016
   0.00000000  0.20000000  0.20000000       0.016
   0.20000000  0.20000000  0.20000000       0.016
   0.40000000  0.20000000  0.20000000       0.016
  -0.40000000  0.20000000  0.20000000       0.016
  -0.20000000  0.20000000  0.20000000       0.016
   0.00000000  0.40000000  0.20000000       0.016
   0.20000000  0.40000000  0.20000000       0.016
   0.40000000  0.40000000  0.20000000       0.016
  -0.40000000  0.40000000  0.20000000       0.016
  -0.20000000  0.40000000  0.20000000       0.016
   0.00000000 -0.40000000  0.20000000       0.016
   0.20000000 -0.40000000  0.20000000       0.016
   0.40000000 -0.40000000  0.20000000       0.016
  -0.40000000 -0.40000000  0.20000000       0.016
  -0.20000000 -0.40000000  0.20000000       0.016
   0.00000000 -0.20000000  0.20000000       0.016
   0.20000000 -0.20000000  0.20000000       0.016
   0.40000000 -0.20000000  0.20000000       0.016
  -0.40000000 -0.20000000  0.20000000       0.016
  -0.20000000 -0.20000000  0.20000000       0.016
   0.00000000  0.00000000  0.40000000       0.016
   0.20000000  0.00000000  0.40000000       0.016
   0.40000000  0.00000000  0.40000000       0.016
  -0.40000000  0.00000000  0.40000000       0.016
  -0.20000000  0.00000000  0.40000000       0.016
   0.00000000  0.20000000  0.40000000       0.016
   0.20000000  0.20000000  0.40000000       0.016
   0.40000000  0.20000000  0.40000000       0.016
  -0.40000000  0.20000000  0.40000000       0.016
  -0.20000000  0.20000000  0.40000000       0.016
   0.00000000  0.40000000  0.40000000       0.016
   0.20000000  0.40000000  0.40000000       0.016
   0.40000000  0.40000000  0.40000000       0.016
  -0.40000000  0.40000000  0.40000000       0.016
  -0.20000000  0.40000000  0.40000000       0.016
   0.00000000 -0.40000000  0.40000000       0.016
   0.20000000 -0.40000000  0.40000000       0.016
   0.40000000 -0.40000000  0.40000000       0.016
  -0.40000000 -0.40000000  0.40000000       0.016
  -0.20000000 -0.40000000  0.40000000       0.016
   0.00000000 -0.20000000  0.40000000       0.016
   0.20000000 -0.20000000  0.40000000       0.016
   0.40000000 -0.20000000  0.40000000       0.016
  -0.40000000 -0.20000000  0.40000000       0.016
  -0.20000000 -0.20000000  0.40000000       0.016
 
 position of ions in fractional coordinates (direct lattice) 
   0.00000000  0.00000000  0.00000000
   0.51000000  0.52000000  0.53000000
   0.50000000  0.00000000  0.00000000
   0.00000000  0.50000000  0.00000000
   0.00000000  0.00000000  0.50000000
 
 position of ions in cartesian coordinates  (Angst):
   0.00000000  0.00000000  0.00000000
   1.97992200  2.01874400  2.05756600
   1.94110000  0.00000000  0.00000000
   0.00000000  1.94110000  0.00000000
   0.00000000  0.00000000  1.94110000
 


--------------------------------------------------------------------------------------------------------


 k-point  1 :   0.0000 0.0000 0.0000  plane waves:    1045
 k-point  2 :   0.2000 0.0000 0.0000  plane waves:    1069
 k-point  3 :   0.4000 0.0000 0.0000  plane waves:    1064
 k-point  4 :   0.0000 0.2000 0.0000  plane waves:    1069
 k-point  5 :   0.2000 0.2000 0.0000  plane waves:    1073
 k-point  6 :   0.4000 0.2000 0.0000  plane waves:    1072
 k-point  7 :  -0.4000 0.2000 0.0000  plane waves:    1072
 k-point  8 :  -0.2000 0.2000 0.0000  plane waves:    1073
 k-point  9 :   0.0000 0.4000 0.0000  plane waves:    1064
 k-point 10 :   0.2000 0.4000 0.0000  plane waves:    1072
 k-point 11 :   0.4000 0.4000 0.0000  plane waves:    1063
 k-point 12 :  -0.4000 0.4000 0.0000  plane waves:    1063
 k-point 13 :  -0.2000 0.4000 0.0000  plane waves:    1072
 k-point 14 :   0.0000 0.0000 0.2000  plane waves:    1069
 k-point 15 :   0.2000 0.0000 0.2000  plane waves:    1073
 k-point 16 :   0.4000 0.0000 0.2000  plane waves:    1072
 k-point 17 :  -0.4000 0.0000 0.2000  plane waves:    1072
 k-point 18 :  -0.2000 0.0000 0.2000  plane waves:    1073
 k-point 19 :   0.0000 0.2000 0.2000  plane waves:    1073
 k-point 20 :   0.2000 0.2000 0.2000  plane waves:    1066
 k-point 21 :   0.4000 0.2000 0.2000  plane waves:    1068
 k-point 22 :  -0.4000 0.2000 0.2000  plane waves:    1068
 k-point 23 :  -0.2000 0.2000 0.2000  plane waves:    1066
 k-point 24 :   0.0000 0.4000 0.2000  plane waves:    1072
 k-point 25 :   0.2000 0.4000 0.2000  plane waves:    1068
 k-point 26 :   0.4000 0.4000 0.2000  plane waves:    1054
 k-point 27 :  -0.4000 0.4000 0.2000  plane waves:    1054
 k-point 28 :  -0.2000 0.4000 0.2000  plane waves:    1068
 k-point 29 :   0.0000-0.4000 0.2000  plane waves:    1072
 k-point 30 :   0.2000-0.4000 0.2000  plane waves:    1068
 k-point 31 :   0.4000-0.4000 0.2000  plane waves:    1054
 k-point 32 :  -0.4000-0.4000 0.2000  plane waves:    1054
 k-point 33 :  -0.2000-0.4000 0.2000  plane waves:    1068
 k-point 34 :   0.0000-0.2000 0.2000  plane waves:    1073
 k-point 35 :   0.2000-0.2000 0.2000  plane waves:    1066
 k-point 36 :   0.4000-0.2000 0.2000  plane waves:    1068
 k-point 37 :  -0.4000-0.2000 0.2000  plane waves:    1068
 k-point 38 :  -0.2000-0.2000 0.2000  plane waves:    1066
 k-point 39 :   0.0000 0.0000 0.4000  plane waves:    1064
 k-point 40 :   0.2000 0.0000 0.4000  plane waves:    1072
 k-point 41 :   0.4000 0.0000 0.4000  plane waves:    1063
 k-point 42 :  -0.4000 0.0000 0.4000  plane waves:    1063
 k-point 43 :  -0.2000 0.0000 0.4000  plane waves:    1072
 k-point 44 :   0.0000 0.2000 0.4000  plane waves:    1072
 k-point 45 :   0.2000 0.2000 0.4000  plane waves:    1068
 k-point 46 :   0.4000 0.2000 0.4000  plane waves:    1054
 k-point 47 :  -0.4000 0.2000 0.4000  plane waves:    1054
 k-point 48 :  -0.2000 0.2000 0.4000  plane waves:    1068
 k-point 49 :   0.0000 0.4000 0.4000  plane waves:    1063
 k-point 50 :   0.2000 0.4000 0.4000  plane waves:    1054
 k-point 51 :   0.4000 0.4000 0.4000  plane waves:    1058
 k-point 52 :  -0.4000 0.4000 0.4000  plane waves:    1058
 k-point 53 :  -0.2000 0.4000 0.4000  plane waves:    1054
 k-point 54 :   0.0000-0.4000 0.4000  plane waves:    1063
 k-point 55 :   0.2000-0.4000 0.4000  plane waves:    1054
 k-point 56 :   0.4000-0.4000 0.4000  plane waves:    1058
 k-point 57 :  -0.4000-0.4000 0.4000  plane waves:    1058
 k-point 58 :  -0.2000-0.4000 0.4000  plane waves:    1054
 k-point 59 :   0.0000-0.2000 0.4000  plane waves:    1072
 k-point 60 :   0.2000-0.2000 0.4000  plane waves:    1068
 k-point 61 :   0.4000-0.2000 0.4000  plane waves:    1054
 k-point 62 :  -0.4000-0.2000 0.4000  plane waves:    1054
 k-point 63 :  -0.2000-0.2000 0.4000  plane waves:    1068

 maximum and minimum number of plane-waves per node :      1073     1045

 maximum number of plane-waves:      1073
 maximum index in each direction: 
   IXMAX=    6   IYMAX=    6   IZMAX=    6
   IXMIN=   -6   IYMIN=   -6   IZMIN=   -6

 WARNING: aliasing errors must be expected set NGX to  26 to avoid them
 WARNING: aliasing errors must be expected set NGY to  26 to avoid them
 WARNING: aliasing errors must be expected set NGZ to  26 to avoid them
 aliasing errors are usually negligible using standard VASP settings
 and one can safely disregard these warnings

 serial   3D FFT for wavefunctions
 parallel 3D FFT for charge:
    minimum data exchange during FFTs selected (reduces bandwidth)


 total amount of memory used by VASP on root node    61338. kBytes
========================================================================

   base      :      30000. kBytes
   nonl-proj :      29425. kBytes
   fftplans  :        145. kBytes
   grid      :        538. kBytes
   one-center:         77. kBytes
   wavefun   :       1153. kBytes
 
     INWAV:  cpu time    0.21: real time    0.22
 Broyden mixing: mesh for mixing (old mesh)
   NGX = 13   NGY = 13   NGZ = 13
  (NGX  = 40   NGY  = 40   NGZ  = 40)
  gives a total of   2197 points

 charge density for first step will be calculated from the start-wavefunctions


--------------------------------------------------------------------------------------------------------


 Maximum index for augmentation-charges          528 (set IRDMAX)


--------------------------------------------------------------------------------------------------------


 initial charge from wavefunction
 First call to EWALD:  gamma=   0.457
 Maximum number of real-space cells 3x 3x 3
 Maximum number of reciprocal cells 3x 3x 3

 FEWALD executed in parallel
    FEWALD:  cpu time    0.00: real time    0.00


----------------------------------------- Iteration    1(   1)  ---------------------------------------


    POTLOK:  cpu time    0.00: real time    0.00
    SETDIJ:  cpu time    0.00: real time    0.00
     EDDAV:  cpu time    0.44: real time    0.44
       DOS:  cpu time    0.00: real time    0.00
    CHARGE:  cpu time    0.01: real time    0.01
    MIXING:  cpu time    0.00: real time    0.00
    --------------------------------------------
      LOOP:  cpu time    0.46: real time    0.46

 eigenvalue-minimisations  :  2860
 total energy-change (2. order) :-0.4274531E+02  (-0.6996015E+01)
 number of electron      35.9999986 magnetization 
 augmentation part       11.1482404 magnetization 

 Broyden mixing:
  rms(total) = 0.86256E+00    rms(broyden)= 0.86255E+00
  rms(prec ) = 0.20305E+01
  weight for this iteration     100.00

 Free energy of the ion-electron system (eV)
  ---------------------------------------------------
  alpha Z        PSCENC =       166.69949767
  Ewald energy   TEWEN  =     -2275.33586813
  -Hartree energ DENC   =      -682.79512428
  -exchange      EXHF   =         0.00000000
  -V(xc)+E(xc)   XCENC  =       137.54106377
  PAW double counting   =      4055.19026863    -4061.46429692
  entropy T*S    EENTRO =         0.00671449
  eigenvalues    EBANDS =      -334.64031664
  atomic energy  EATOM  =      2952.05274943
  ---------------------------------------------------
  free energy    TOTEN  =       -42.74531197 eV

  energy without entropy =      -42.75202646  energy(sigma->0) =      -42.74755013


--------------------------------------------------------------------------------------------------------




----------------------------------------- Iteration    1(   2)  ---------------------------------------


    POTLOK:  cpu time    0.00: real time    0.00
    SETDIJ:  cpu time    0.00: real time    0.00
     EDDAV:  cpu time    0.37: real time    0.37
       DOS:  cpu time    0.00: real time    0.00
    CHARGE:  cpu time    0.01: real time    0.01
    MIXING:  cpu time    0.00: real time    0.00
    --------------------------------------------
      LOOP:  cpu time    0.39: real time    0.39

 eigenvalue-minimisations  :  2882
 total energy-change (2. order) : 0.2479291E+01  (-0.7791605E+00)
 number of electron      35.9999985 magnetization 
 augmentation part       11.1274571 magnetization 

 Broyden mixing:
  rms(total) = 0.46836E+00    rms(broyden)= 0.46835E+00
  rms(prec ) = 0.74869E+00
  weight for this iteration     100.00

 eigenvalues of (default mixing * dielectric matrix)
  average eigenvalue GAMMA=   1.2127
  1.2127

 Free energy of the ion-electron system (eV)
  ---------------------------------------------------
  alpha Z        PSCENC =       166.69949767
  Ewald energy   TEWEN  =     -2275.33586813
  -Hartree energ DENC   =      -683.34703055
  -exchange      EXHF   =         0.00000000
  -V(xc)+E(xc)   XCENC  =       137.52783338
  PAW double counting   =      3900.50391958    -3906.93427607
  entropy T*S    EENTRO =         0.00690929
  eigenvalues    EBANDS =      -331.43975518
  atomic energy  EATOM  =      2952.05274943
  ---------------------------------------------------
  free energy    TOTEN  =       -40.26602057 eV

  energy without entropy =      -40.27292986  energy(sigma->0) =      -40.26832366


--------------------------------------------------------------------------------------------------------




----------------------------------------- Iteration    1(   3)  ---------------------------------------


    POTLOK:  cpu time    0.00: real time    0.00
    SETDIJ:  cpu time    0.00: real time    0.00
     EDDAV:  cpu time    0.56: real time    0.56
       DOS:  cpu time    0.00: real time    0.00
    CHARGE:  cpu time    0.02: real time    0.02
    MIXING:  cpu time    0.01: real time    0.01
    --------------------------------------------
      LOOP:  cpu time    0.59: real time    0.59

 eigenvalue-minimisations  :  4136
 total energy-change (2. order) : 0.2115972E+00  (-0.1772870E+00)
 number of electron      35.9999985 magnetization 
 augmentation part       11.1206335 magnetization 

 Broyden mixing:
  rms(total) = 0.29096E+00    rms(broyden)= 0.29096E+00
  rms(prec ) = 0.30616E+00
  weight for this iteration     100.00

 eigenvalues of (default mixing * dielectric matrix)
  average eigenvalue GAMMA=   1.7655
  1.7655  1.7655

 Free energy of the ion-electron system (eV)
  ---------------------------------------------------
  alpha Z        PSCENC =       166.69949767
  Ewald energy   TEWEN  =     -2275.33586813
  -Hartree energ DENC   =      -684.70511391
  -exchange      EXHF   =         0.00000000
  -V(xc)+E(xc)   XCENC  =       137.59999277
  PAW double counting   =      3678.33497494    -3684.91584856
  entropy T*S    EENTRO =         0.00690460
  eigenvalues    EBANDS =      -329.79171213
  atomic energy  EATOM  =      2952.05274943
  ---------------------------------------------------
  free energy    TOTEN  =       -40.05442332 eV

  energy without entropy =      -40.06132792  energy(sigma->0) =      -40.05672486


--------------------------------------------------------------------------------------------------------




----------------------------------------- Iteration    1(   4)  ---------------------------------------


    POTLOK:  cpu time    0.00: real time    0.00
    SETDIJ:  cpu time    0.00: real time    0.00
     EDDAV:  cpu time    0.48: real time    0.48
       DOS:  cpu time    0.00: real time    0.00
    CHARGE:  cpu time    0.01: real time    0.01
    MIXING:  cpu time    0.00: real time    0.00
    --------------------------------------------
      LOOP:  cpu time    0.51: real time    0.51

 eigenvalue-minimisations  :  3366
 total energy-change (2. order) :-0.5225248E-02  (-0.5417037E-02)
 number of electron      35.9999985 magnetization 
 augmentation part       11.1113548 magnetization 

 Broyden mixing:
  rms(total) = 0.65725E-01    rms(broyden)= 0.65722E-01
  rms(prec ) = 0.95353E-01
  weight for this iteration     100.00

 eigenvalues of (default mixing * dielectric matrix)
  average eigenvalue GAMMA=   1.6396
  2.5912  0.9662  1.3613

 Free energy of the ion-electron system (eV)
  ---------------------------------------------------
  alpha Z        PSCENC =       166.69949767
  Ewald energy   TEWEN  =     -2275.33586813
  -Hartree energ DENC   =      -685.47903415
  -exchange      EXHF   =         0.00000000
  -V(xc)+E(xc)   XCENC  =       137.64250891
  PAW double counting   =      3535.60900908    -3542.19634706
  entropy T*S    EENTRO =         0.00691620
  eigenvalues    EBANDS =      -329.05908052
  atomic energy  EATOM  =      2952.05274943
  ---------------------------------------------------
  free energy    TOTEN  =       -40.05964857 eV

  energy without entropy =      -40.06656477  energy(sigma->0) =      -40.06195397


--------------------------------------------------------------------------------------------------------




----------------------------------------- Iteration    1(   5)  ---------------------------------------


    POTLOK:  cpu time    0.00: real time    0.00
    SETDIJ:  cpu time    0.00: real time    0.00
     EDDAV:  cpu time    0.54: real time    0.54
       DOS:  cpu time    0.00: real time    0.00
    CHARGE:  cpu time    0.01: real time    0.01
    MIXING:  cpu time    0.00: real time    0.00
    --------------------------------------------
      LOOP:  cpu time    0.56: real time    0.56

 eigenvalue-minimisations  :  3740
 total energy-change (2. order) : 0.2644874E-02  (-0.1510259E-02)
 number of electron      35.9999985 magnetization 
 augmentation part       11.1147816 magnetization 

 Broyden mixing:
  rms(total) = 0.10215E-01    rms(broyden)= 0.10206E-01
  rms(prec ) = 0.22402E-01
  weight for this iteration     100.00

 eigenvalues of (default mixing * dielectric matrix)
  average eigenvalue GAMMA=   1.4133
  2.5486  1.2952  1.0941  0.7151

 Free energy of the ion-electron system (eV)
  ---------------------------------------------------
  alpha Z        PSCENC =       166.69949767
  Ewald energy   TEWEN  =     -2275.33586813
  -Hartree energ DENC   =      -685.63365170
  -exchange      EXHF   =         0.00000000
  -V(xc)+E(xc)   XCENC  =       137.65867227
  PAW double counting   =      3499.98197003    -3506.58789160
  entropy T*S    EENTRO =         0.00690989
  eigenvalues    EBANDS =      -328.89939158
  atomic energy  EATOM  =      2952.05274943
  ---------------------------------------------------
  free energy    TOTEN  =       -40.05700370 eV

  energy without entropy =      -40.06391359  energy(sigma->0) =      -40.05930699


--------------------------------------------------------------------------------------------------------




----------------------------------------- Iteration    1(   6)  ---------------------------------------


    POTLOK:  cpu time    0.00: real time    0.00
    SETDIJ:  cpu time    0.00: real time    0.00
     EDDAV:  cpu time    0.57: real time    0.57
       DOS:  cpu time    0.00: real time    0.00
    CHARGE:  cpu time    0.01: real time    0.01
    MIXING:  cpu time    0.00: real time    0.00
    --------------------------------------------
      LOOP:  cpu time    0.59: real time    0.59

 eigenvalue-minimisations  :  4136
 total energy-change (2. order) : 0.1789577E-03  (-0.1924803E-03)
 number of electron      35.9999985 magnetization 
 augmentation part       11.1136262 magnetization 

 Broyden mixing:
  rms(total) = 0.46065E-02    rms(broyden)= 0.46055E-02
  rms(prec ) = 0.65255E-02
  weight for this iteration     100.00

 eigenvalues of (default mixing * dielectric matrix)
  average eigenvalue GAMMA=   1.3833
  2.4471  1.4718  1.4306  0.9195  0.6474

 Free energy of the ion-electron system (eV)
  ---------------------------------------------------
  alpha Z        PSCENC =       166.69949767
  Ewald energy   TEWEN  =     -2275.33586813
  -Hartree energ DENC   =      -685.57017650
  -exchange      EXHF   =         0.00000000
  -V(xc)+E(xc)   XCENC  =       137.65152181
  PAW double counting   =      3499.95518726    -3506.55484567
  entropy T*S    EENTRO =         0.00690841
  eigenvalues    EBANDS =      -328.96179903
  atomic energy  EATOM  =      2952.05274943
  ---------------------------------------------------
  free energy    TOTEN  =       -40.05682474 eV

  energy without entropy =      -40.06373315  energy(sigma->0) =      -40.05912754


--------------------------------------------------------------------------------------------------------




----------------------------------------- Iteration    1(   7)  ---------------------------------------


    POTLOK:  cpu time    0.00: real time    0.00
    SETDIJ:  cpu time    0.00: real time    0.00
     EDDAV:  cpu time    0.30: real time    0.30
       DOS:  cpu time    0.00: real time    0.00
    --------------------------------------------
      LOOP:  cpu time    0.31: real time    0.31

 eigenvalue-minimisations  :  2354
 total energy-change (2. order) :-0.5642348E-05  (-0.9606020E-05)
 number of electron      35.9999985 magnetization 
 augmentation part       11.1136262 magnetization 

 Free energy of the ion-electron system (eV)
  ---------------------------------------------------
  alpha Z        PSCENC =       166.69949767
  Ewald energy   TEWEN  =     -2275.33586813
  -Hartree energ DENC   =      -685.51346406
  -exchange      EXHF   =         0.00000000
  -V(xc)+E(xc)   XCENC  =       137.64817272
  PAW double counting   =      3501.96441228    -3508.56087198
  entropy T*S    EENTRO =         0.00690842
  eigenvalues    EBANDS =      -329.01836673
  atomic energy  EATOM  =      2952.05274943
  ---------------------------------------------------
  free energy    TOTEN  =       -40.05683038 eV

  energy without entropy =      -40.06373880  energy(sigma->0) =      -40.05913319


--------------------------------------------------------------------------------------------------------




 average (electrostatic) potential at core
  the test charge radii are     1.0397  1.2658  0.7215
  (the norm of the test charge is              1.0000)
       1 -53.1529       2 -45.5862       3 -70.0951       4 -70.0978       5 -70.0962
 
 
 
 E-fermi :   3.6815     XC(G=0): -11.0061     alpha+bet :-13.2781


 k-point     1 :       0.0000    0.0000    0.0000
  band No.  band energies     occupation 
      1     -29.0439      2.00000
      2     -29.0430      2.00000
      3     -29.0412      2.00000
      4     -16.5690      2.00000
      5     -16.5616      2.00000
      6     -16.5599      2.00000
      7     -13.8740      2.00000
      8     -12.7868      2.00000
      9     -12.7777      2.00000
     10       0.6378      2.00000
     11       0.6426      2.00000
     12       0.6475      2.00000
     13       2.5392      2.00000
     14       2.5488      2.00000
     15       2.5700      2.00000
     16       3.2802      2.01566
     17       3.2810      2.01584
     18       3.2850      2.01691
     19       5.5564     -0.00000
     20       5.5757     -0.00000
     21       5.5765     -0.00000
     22       8.0464     -0.00000

 k-point     2 :       0.2000    0.0000    0.0000
  band No.  band energies     occupation 
      1     -29.0700      2.00000
      2     -29.0422      2.00000
      3     -29.0401      2.00000
      4     -16.6482      2.00000
      5     -16.5629      2.00000
      6     -16.5572      2.00000
      7     -13.6536      2.00000
      8     -12.7712      2.00000
      9     -12.6786      2.00000
     10       0.2177      2.00000
     11       0.6624      2.00000
     12       0.6721      2.00000
     13       2.0643      2.00000
     14       2.0778      2.00000
     15       2.2240      2.00000
     16       2.2644      2.00000
     17       3.1249      2.00060
     18       3.1290      2.00066
     19       5.6281     -0.00000
     20       6.3335     -0.00000
     21       6.3507     -0.00000
     22       8.0693     -0.00000

 k-point     3 :       0.4000    0.0000    0.0000
  band No.  band energies     occupation 
      1     -29.1121      2.00000
      2     -29.0405      2.00000
      3     -29.0384      2.00000
      4     -16.7760      2.00000
      5     -16.5563      2.00000
      6     -16.5500      2.00000
      7     -13.2980      2.00000
      8     -12.7525      2.00000
      9     -12.4898      2.00000
     10      -0.5616      2.00000
     11       0.8149      2.00000
     12       0.8221      2.00000
     13       1.1453      2.00000
     14       1.3254      2.00000
     15       1.3329      2.00000
     16       1.8831      2.00000
     17       3.0124      2.00002
     18       3.0236      2.00003
     19       5.7232     -0.00000
     20       7.3509     -0.00000
     21       7.3642     -0.00000
     22       8.0807     -0.00000

 k-point     4 :       0.0000    0.2000    0.0000
  band No.  band energies     occupation 
      1     -29.0693      2.00000
      2     -29.0426      2.00000
      3     -29.0404      2.00000
      4     -16.6500      2.00000
      5     -16.5619      2.00000
      6     -16.5562      2.00000
      7     -13.6538      2.00000
      8     -12.7729      2.00000
      9     -12.6770      2.00000
     10       0.2174      2.00000
     11       0.6651      2.00000
     12       0.6701      2.00000
     13       2.0673      2.00000
     14       2.0750      2.00000
     15       2.2239      2.00000
     16       2.2633      2.00000
     17       3.1246      2.00059
     18       3.1267      2.00062
     19       5.6247     -0.00000
     20       6.3387     -0.00000
     21       6.3493     -0.00000
     22       8.0686     -0.00000

 k-point     5 :       0.2000    0.2000    0.0000
  band No.  band energies     occupation 
      1     -29.0690      2.00000
      2     -29.0682      2.00000
      3     -29.0395      2.00000
      4     -16.6550      2.00000
      5     -16.6080      2.00000
      6     -16.5564      2.00000
      7     -13.4673      2.00000
      8     -12.7136      2.00000
      9     -12.6212      2.00000
     10       0.0012      2.00000
     11       0.4115      2.00000
     12       0.6855      2.00000
     13       1.1431      2.00000
     14       1.7974      2.00000
     15       2.1833      2.00000
     16       2.3479      2.00000
     17       2.8003      2.00000
     18       2.8052      2.00000
     19       6.2980     -0.00000
     20       6.4486     -0.00000
     21       6.6588     -0.00000
     22       8.5446     -0.00000

 k-point     6 :       0.4000    0.2000    0.0000
  band No.  band energies     occupation 
      1     -29.1113      2.00000
      2     -29.0667      2.00000
      3     -29.0378      2.00000
      4     -16.7433      2.00000
      5     -16.6041      2.00000
      6     -16.5488      2.00000
      7     -13.1900      2.00000
      8     -12.6638      2.00000
      9     -12.4382      2.00000
     10      -0.5877      2.00000
     11      -0.0701      2.00000
     12       0.5081      2.00000
     13       0.8172      2.00000
     14       1.2257      2.00000
     15       1.6099      2.00000
     16       2.2937      2.00000
     17       2.5789      2.00000
     18       2.8017      2.00000
     19       6.4254     -0.00000
     20       7.3632     -0.00000
     21       7.4055     -0.00000
     22       8.6848     -0.00000

 k-point     7 :      -0.4000    0.2000    0.0000
  band No.  band energies     occupation 
      1     -29.1113      2.00000
      2     -29.0667      2.00000
      3     -29.0378      2.00000
      4     -16.7431      2.00000
      5     -16.6042      2.00000
      6     -16.5488      2.00000
      7     -13.1901      2.00000
      8     -12.6638      2.00000
      9     -12.4384      2.00000
     10      -0.5870      2.00000
     11      -0.0700      2.00000
     12       0.5078      2.00000
     13       0.8159      2.00000
     14       1.2273      2.00000
     15       1.6114      2.00000
     16       2.2942      2.00000
     17       2.5788      2.00000
     18       2.8004      2.00000
     19       6.4252     -0.00000
     20       7.3626     -0.00000
     21       7.4066     -0.00000
     22       8.6848     -0.00000

 k-point     8 :      -0.2000    0.2000    0.0000
  band No.  band energies     occupation 
      1     -29.0691      2.00000
      2     -29.0682      2.00000
      3     -29.0395      2.00000
      4     -16.6541      2.00000
      5     -16.6086      2.00000
      6     -16.5564      2.00000
      7     -13.4674      2.00000
      8     -12.7136      2.00000
      9     -12.6216      2.00000
     10       0.0016      2.00000
     11       0.4128      2.00000
     12       0.6847      2.00000
     13       1.1439      2.00000
     14       1.7987      2.00000
     15       2.1853      2.00000
     16       2.3487      2.00000
     17       2.7967      2.00000
     18       2.8051      2.00000
     19       6.2986     -0.00000
     20       6.4469     -0.00000
     21       6.6612     -0.00000
     22       8.5446     -0.00000

 k-point     9 :       0.0000    0.4000    0.0000
  band No.  band energies     occupation 
      1     -29.1115      2.00000
      2     -29.0408      2.00000
      3     -29.0387      2.00000
      4     -16.7769      2.00000
      5     -16.5548      2.00000
      6     -16.5500      2.00000
      7     -13.2985      2.00000
      8     -12.7534      2.00000
      9     -12.4890      2.00000
     10      -0.5609      2.00000
     11       0.8149      2.00000
     12       0.8197      2.00000
     13       1.1459      2.00000
     14       1.3290      2.00000
     15       1.3334      2.00000
     16       1.8772      2.00000
     17       3.0130      2.00002
     18       3.0187      2.00003
     19       5.7208     -0.00000
     20       7.3550     -0.00000
     21       7.3621     -0.00000
     22       8.0802     -0.00000

 k-point    10 :       0.2000    0.4000    0.0000
  band No.  band energies     occupation 
      1     -29.1106      2.00000
      2     -29.0674      2.00000
      3     -29.0378      2.00000
      4     -16.7440      2.00000
      5     -16.6029      2.00000
      6     -16.5488      2.00000
      7     -13.1902      2.00000
      8     -12.6644      2.00000
      9     -12.4377      2.00000
     10      -0.5868      2.00000
     11      -0.0693      2.00000
     12       0.5049      2.00000
     13       0.8166      2.00000
     14       1.2276      2.00000
     15       1.6115      2.00000
     16       2.2911      2.00000
     17       2.5773      2.00000
     18       2.8000      2.00000
     19       6.4231     -0.00000
     20       7.3652     -0.00000
     21       7.4059     -0.00000
     22       8.6847     -0.00000

 k-point    11 :       0.4000    0.4000    0.0000
  band No.  band energies     occupation 
      1     -29.1100      2.00000
      2     -29.1092      2.00000
      3     -29.0361      2.00000
      4     -16.6965      2.00000
      5     -16.6786      2.00000
      6     -16.5412      2.00000
      7     -13.1189      2.00000
      8     -12.3983      2.00000
      9     -12.3421      2.00000
     10      -0.9116      2.00000
     11      -0.6268      2.00000
     12      -0.4133      2.00000
     13       0.8447      2.00000
     14       0.9984      2.00000
     15       1.7696      2.00000
     16       1.8486      2.00000
     17       2.1249      2.00000
     18       3.4624      2.06487
     19       7.3506     -0.00000
     20       7.3955     -0.00000
     21       7.7546     -0.00000
     22       9.0021     -0.00000

 k-point    12 :      -0.4000    0.4000    0.0000
  band No.  band energies     occupation 
      1     -29.1101      2.00000
      2     -29.1092      2.00000
      3     -29.0361      2.00000
      4     -16.6958      2.00000
      5     -16.6792      2.00000
      6     -16.5412      2.00000
      7     -13.1190      2.00000
      8     -12.3978      2.00000
      9     -12.3426      2.00000
     10      -0.9103      2.00000
     11      -0.6282      2.00000
     12      -0.4131      2.00000
     13       0.8421      2.00000
     14       1.0013      2.00000
     15       1.7698      2.00000
     16       1.8497      2.00000
     17       2.1246      2.00000
     18       3.4617      2.06518
     19       7.3503     -0.00000
     20       7.3955     -0.00000
     21       7.7551     -0.00000
     22       9.0022     -0.00000

 k-point    13 :      -0.2000    0.4000    0.0000
  band No.  band energies     occupation 
      1     -29.1106      2.00000
      2     -29.0674      2.00000
      3     -29.0378      2.00000
      4     -16.7438      2.00000
      5     -16.6030      2.00000
      6     -16.5488      2.00000
      7     -13.1903      2.00000
      8     -12.6644      2.00000
      9     -12.4379      2.00000
     10      -0.5862      2.00000
     11      -0.0693      2.00000
     12       0.5046      2.00000
     13       0.8153      2.00000
     14       1.2291      2.00000
     15       1.6130      2.00000
     16       2.2916      2.00000
     17       2.5772      2.00000
     18       2.7987      2.00000
     19       6.4229     -0.00000
     20       7.3647     -0.00000
     21       7.4071     -0.00000
     22       8.6847     -0.00000

 k-point    14 :       0.0000    0.0000    0.2000
  band No.  band energies     occupation 
      1     -29.0680      2.00000
      2     -29.0426      2.00000
      3     -29.0417      2.00000
      4     -16.6528      2.00000
      5     -16.5585      2.00000
      6     -16.5561      2.00000
      7     -13.6545      2.00000
      8     -12.7775      2.00000
      9     -12.6722      2.00000
     10       0.2181      2.00000
     11       0.6662      2.00000
     12       0.6695      2.00000
     13       2.0710      2.00000
     14       2.0753      2.00000
     15       2.2250      2.00000
     16       2.2583      2.00000
     17       3.1211      2.00054
     18       3.1226      2.00056
     19       5.6187     -0.00000
     20       6.3447     -0.00000
     21       6.3507     -0.00000
     22       8.0672     -0.00000

 k-point    15 :       0.2000    0.0000    0.2000
  band No.  band energies     occupation 
      1     -29.0690      2.00000
      2     -29.0669      2.00000
      3     -29.0407      2.00000
      4     -16.6568      2.00000
      5     -16.6083      2.00000
      6     -16.5539      2.00000
      7     -13.4680      2.00000
      8     -12.7172      2.00000
      9     -12.6172      2.00000
     10       0.0037      2.00000
     11       0.4110      2.00000
     12       0.6860      2.00000
     13       1.1429      2.00000
     14       1.7942      2.00000
     15       2.1769      2.00000
     16       2.3437      2.00000
     17       2.8024      2.00000
     18       2.8107      2.00000
     19       6.2950     -0.00000
     20       6.4489     -0.00000
     21       6.6615     -0.00000
     22       8.5437     -0.00000

 k-point    16 :       0.4000    0.0000    0.2000
  band No.  band energies     occupation 
      1     -29.1113      2.00000
      2     -29.0654      2.00000
      3     -29.0390      2.00000
      4     -16.7435      2.00000
      5     -16.6054      2.00000
      6     -16.5469      2.00000
      7     -13.1912      2.00000
      8     -12.6629      2.00000
      9     -12.4383      2.00000
     10      -0.5871      2.00000
     11      -0.0680      2.00000
     12       0.5140      2.00000
     13       0.8131      2.00000
     14       1.2196      2.00000
     15       1.6015      2.00000
     16       2.2920      2.00000
     17       2.5778      2.00000
     18       2.8136      2.00000
     19       6.4264     -0.00000
     20       7.3611     -0.00000
     21       7.4071     -0.00000
     22       8.6844     -0.00000

 k-point    17 :      -0.4000    0.0000    0.2000
  band No.  band energies     occupation 
      1     -29.1113      2.00000
      2     -29.0654      2.00000
      3     -29.0390      2.00000
      4     -16.7432      2.00000
      5     -16.6055      2.00000
      6     -16.5469      2.00000
      7     -13.1914      2.00000
      8     -12.6628      2.00000
      9     -12.4386      2.00000
     10      -0.5861      2.00000
     11      -0.0680      2.00000
     12       0.5136      2.00000
     13       0.8111      2.00000
     14       1.2220      2.00000
     15       1.6038      2.00000
     16       2.2928      2.00000
     17       2.5776      2.00000
     18       2.8116      2.00000
     19       6.4261     -0.00000
     20       7.3605     -0.00000
     21       7.4086     -0.00000
     22       8.6844     -0.00000

 k-point    18 :      -0.2000    0.0000    0.2000
  band No.  band energies     occupation 
      1     -29.0691      2.00000
      2     -29.0669      2.00000
      3     -29.0407      2.00000
      4     -16.6556      2.00000
      5     -16.6093      2.00000
      6     -16.5538      2.00000
      7     -13.4681      2.00000
      8     -12.7172      2.00000
      9     -12.6177      2.00000
     10       0.0042      2.00000
     11       0.4129      2.00000
     12       0.6848      2.00000
     13       1.1441      2.00000
     14       1.7960      2.00000
     15       2.1799      2.00000
     16       2.3450      2.00000
     17       2.8020      2.00000
     18       2.8055      2.00000
     19       6.2959     -0.00000
     20       6.4467     -0.00000
     21       6.6649     -0.00000
     22       8.5436     -0.00000

 k-point    19 :       0.0000    0.2000    0.2000
  band No.  band energies     occupation 
      1     -29.0686      2.00000
      2     -29.0666      2.00000
      3     -29.0414      2.00000
      4     -16.6583      2.00000
      5     -16.6082      2.00000
      6     -16.5524      2.00000
      7     -13.4678      2.00000
      8     -12.7187      2.00000
      9     -12.6158      2.00000
     10       0.0045      2.00000
     11       0.4095      2.00000
     12       0.6870      2.00000
     13       1.1417      2.00000
     14       1.7907      2.00000
     15       2.1731      2.00000
     16       2.3421      2.00000
     17       2.8020      2.00000
     18       2.8180      2.00000
     19       6.2929     -0.00000
     20       6.4499     -0.00000
     21       6.6615     -0.00000
     22       8.5433     -0.00000

 k-point    20 :       0.2000    0.2000    0.2000
  band No.  band energies     occupation 
      1     -29.0684      2.00000
      2     -29.0673      2.00000
      3     -29.0655      2.00000
      4     -16.6566      2.00000
      5     -16.5985      2.00000
      6     -16.5981      2.00000
      7     -13.2847      2.00000
      8     -12.6244      2.00000
      9     -12.6194      2.00000
     10      -0.1646      2.00000
     11       0.3774      2.00000
     12       0.3805      2.00000
     13       1.0752      2.00000
     14       1.0773      2.00000
     15       1.4651      2.00000
     16       2.6655      2.00000
     17       2.6730      2.00000
     18       2.9332      2.00000
     19       6.6472     -0.00000
     20       6.7520     -0.00000
     21       6.7574     -0.00000
     22       9.5447      0.00000

 k-point    21 :       0.4000    0.2000    0.2000
  band No.  band energies     occupation 
      1     -29.1103      2.00000
      2     -29.0662      2.00000
      3     -29.0636      2.00000
      4     -16.7166      2.00000
      5     -16.6069      2.00000
      6     -16.5814      2.00000
      7     -13.0190      2.00000
      8     -12.6275      2.00000
      9     -12.4165      2.00000
     10      -0.6055      2.00000
     11      -0.1321      2.00000
     12       0.1807      2.00000
     13       0.3246      2.00000
     14       0.6858      2.00000
     15       1.3811      2.00000
     16       2.5571      2.00000
     17       2.6557      2.00000
     18       2.9728      2.00001
     19       6.8111     -0.00000
     20       7.4374     -0.00000
     21       7.4789     -0.00000
     22       9.6422      0.00000

 k-point    22 :      -0.4000    0.2000    0.2000
  band No.  band energies     occupation 
      1     -29.1103      2.00000
      2     -29.0662      2.00000
      3     -29.0636      2.00000
      4     -16.7161      2.00000
      5     -16.6072      2.00000
      6     -16.5813      2.00000
      7     -13.0196      2.00000
      8     -12.6277      2.00000
      9     -12.4164      2.00000
     10      -0.6047      2.00000
     11      -0.1358      2.00000
     12       0.1841      2.00000
     13       0.3278      2.00000
     14       0.6845      2.00000
     15       1.3822      2.00000
     16       2.5598      2.00000
     17       2.6585      2.00000
     18       2.9673      2.00001
     19       6.8113     -0.00000
     20       7.4356     -0.00000
     21       7.4815     -0.00000
     22       9.6421      0.00000

 k-point    23 :      -0.2000    0.2000    0.2000
  band No.  band energies     occupation 
      1     -29.0682      2.00000
      2     -29.0674      2.00000
      3     -29.0655      2.00000
      4     -16.6552      2.00000
      5     -16.5997      2.00000
      6     -16.5979      2.00000
      7     -13.2853      2.00000
      8     -12.6245      2.00000
      9     -12.6196      2.00000
     10      -0.1688      2.00000
     11       0.3808      2.00000
     12       0.3859      2.00000
     13       1.0758      2.00000
     14       1.0799      2.00000
     15       1.4646      2.00000
     16       2.6712      2.00000
     17       2.6782      2.00000
     18       2.9202      2.00000
     19       6.6459     -0.00000
     20       6.7498     -0.00000
     21       6.7634     -0.00000
     22       9.5234      0.00000

 k-point    24 :       0.0000    0.4000    0.2000
  band No.  band energies     occupation 
      1     -29.1106      2.00000
      2     -29.0654      2.00000
      3     -29.0397      2.00000
      4     -16.7446      2.00000
      5     -16.6049      2.00000
      6     -16.5459      2.00000
      7     -13.1911      2.00000
      8     -12.6639      2.00000
      9     -12.4377      2.00000
     10      -0.5864      2.00000
     11      -0.0668      2.00000
     12       0.5138      2.00000
     13       0.8107      2.00000
     14       1.2166      2.00000
     15       1.5990      2.00000
     16       2.2889      2.00000
     17       2.5764      2.00000
     18       2.8187      2.00000
     19       6.4245     -0.00000
     20       7.3622     -0.00000
     21       7.4079     -0.00000
     22       8.6841     -0.00000

 k-point    25 :       0.2000    0.4000    0.2000
  band No.  band energies     occupation 
      1     -29.1096      2.00000
      2     -29.0665      2.00000
      3     -29.0640      2.00000
      4     -16.7174      2.00000
      5     -16.6050      2.00000
      6     -16.5822      2.00000
      7     -13.0197      2.00000
      8     -12.6271      2.00000
      9     -12.4167      2.00000
     10      -0.6046      2.00000
     11      -0.1317      2.00000
     12       0.1834      2.00000
     13       0.3222      2.00000
     14       0.6839      2.00000
     15       1.3781      2.00000
     16       2.5620      2.00000
     17       2.6538      2.00000
     18       2.9714      2.00001
     19       6.8084     -0.00000
     20       7.4424     -0.00000
     21       7.4762     -0.00000
     22       9.6412      0.00000

 k-point    26 :       0.4000    0.4000    0.2000
  band No.  band energies     occupation 
      1     -29.1088      2.00000
      2     -29.1079      2.00000
      3     -29.0624      2.00000
      4     -16.6783      2.00000
      5     -16.6618      2.00000
      6     -16.5774      2.00000
      7     -12.8817      2.00000
      8     -12.4139      2.00000
      9     -12.3678      2.00000
     10      -0.8024      2.00000
     11      -0.5902      2.00000
     12      -0.4078      2.00000
     13       0.1114      2.00000
     14       0.1978      2.00000
     15       0.9538      2.00000
     16       2.7067      2.00000
     17       2.7471      2.00000
     18       3.4950      2.03331
     19       7.5208     -0.00000
     20       7.5567     -0.00000
     21       7.8292     -0.00000
     22       9.7877      0.00000

 k-point    27 :      -0.4000    0.4000    0.2000
  band No.  band energies     occupation 
      1     -29.1088      2.00000
      2     -29.1079      2.00000
      3     -29.0624      2.00000
      4     -16.6773      2.00000
      5     -16.6625      2.00000
      6     -16.5775      2.00000
      7     -12.8827      2.00000
      8     -12.4137      2.00000
      9     -12.3674      2.00000
     10      -0.8016      2.00000
     11      -0.5911      2.00000
     12      -0.4073      2.00000
     13       0.1096      2.00000
     14       0.2011      2.00000
     15       0.9533      2.00000
     16       2.7103      2.00000
     17       2.7486      2.00000
     18       3.4923      2.03721
     19       7.5192     -0.00000
     20       7.5574     -0.00000
     21       7.8298     -0.00000
     22       9.7780      0.00000

 k-point    28 :      -0.2000    0.4000    0.2000
  band No.  band energies     occupation 
      1     -29.1096      2.00000
[...]
     17       3.3604      2.06184
     18       3.4644      1.79198
     19       7.8147     -0.00000
     20       7.9570     -0.00000
     21       8.0204     -0.00000
     22       9.5752      0.00000

 k-point    53 :      -0.2000    0.4000    0.4000
  band No.  band energies     occupation 
      1     -29.0518      2.00000
      2     -29.0380      2.00000
      3     -28.9884      2.00000
      4     -16.5669      2.00000
      5     -16.5129      2.00000
      6     -16.4174      2.00000
      7     -12.8824      2.00000
      8     -12.4805      2.00000
      9     -12.4041      2.00000
     10      -0.8339      2.00000
     11      -0.6059      2.00000
     12      -0.3369      2.00000
     13      -0.0504      2.00000
     14       0.1977      2.00000
     15       1.1502      2.00000
     16       2.6279      2.00000
     17       2.6660      2.00000
     18       3.4064      1.99895
     19       7.4611     -0.00000
     20       7.6460     -0.00000
     21       7.8272     -0.00000
     22       9.6279      0.00000

 k-point    54 :       0.0000   -0.4000    0.4000
  band No.  band energies     occupation 
      1     -29.0533      2.00000
      2     -29.0389      2.00000
      3     -28.9625      2.00000
      4     -16.5831      2.00000
      5     -16.5372      2.00000
      6     -16.3706      2.00000
      7     -13.1003      2.00000
      8     -12.4721      2.00000
      9     -12.3832      2.00000
     10      -0.9766      2.00000
     11      -0.7149      2.00000
     12      -0.1704      2.00000
     13       0.6341      2.00000
     14       0.9206      2.00000
     15       1.7458      2.00000
     16       1.7933      2.00000
     17       2.1643      2.00000
     18       3.3925      2.02578
     19       7.3851     -0.00000
     20       7.5253     -0.00000
     21       7.7661     -0.00000
     22       9.0662      0.00000

 k-point    55 :       0.2000   -0.4000    0.4000
  band No.  band energies     occupation 
      1     -29.0521      2.00000
      2     -29.0377      2.00000
      3     -28.9885      2.00000
      4     -16.5644      2.00000
      5     -16.5162      2.00000
      6     -16.4170      2.00000
      7     -12.8810      2.00000
      8     -12.4727      2.00000
      9     -12.4125      2.00000
     10      -0.8713      2.00000
     11      -0.6996      2.00000
     12      -0.1571      2.00000
     13      -0.0148      2.00000
     14       0.1624      2.00000
     15       1.1092      2.00000
     16       2.6370      2.00000
     17       2.6413      2.00000
     18       3.4002      2.01189
     19       7.4815     -0.00000
     20       7.6320     -0.00000
     21       7.8384     -0.00000
     22       9.6476      0.00000

 k-point    56 :       0.4000   -0.4000    0.4000
  band No.  band energies     occupation 
      1     -29.0501      2.00000
      2     -29.0363      2.00000
      3     -29.0294      2.00000
      4     -16.5344      2.00000
      5     -16.4923      2.00000
      6     -16.4789      2.00000
      7     -12.5445      2.00000
      8     -12.4548      2.00000
      9     -12.4395      2.00000
     10      -0.8527      2.00000
     11      -0.6487      2.00000
     12      -0.5170      2.00000
     13      -0.4584      2.00000
     14      -0.1759      2.00000
     15      -0.0222      2.00000
     16       3.3198      2.07026
     17       3.3671      2.05697
     18       3.4381      1.90599
     19       7.8176     -0.00000
     20       7.9612     -0.00000
     21       8.0108     -0.00000
     22       9.5241      0.00000

 k-point    57 :      -0.4000   -0.4000    0.4000
  band No.  band energies     occupation 
      1     -29.0503      2.00000
      2     -29.0360      2.00000
      3     -29.0295      2.00000
      4     -16.5341      2.00000
      5     -16.4921      2.00000
      6     -16.4792      2.00000
      7     -12.5451      2.00000
      8     -12.4504      2.00000
      9     -12.4438      2.00000
     10      -0.8466      2.00000
     11      -0.6660      2.00000
     12      -0.5492      2.00000
     13      -0.4420      2.00000
     14      -0.1566      2.00000
     15      -0.0115      2.00000
     16       3.3375      2.07038
     17       3.3566      2.06409
     18       3.4355      1.91538
     19       7.8193     -0.00000
     20       7.9657     -0.00000
     21       8.0034     -0.00000
     22       9.5056      0.00000

 k-point    58 :      -0.2000   -0.4000    0.4000
  band No.  band energies     occupation 
      1     -29.0521      2.00000
      2     -29.0376      2.00000
      3     -28.9884      2.00000
      4     -16.5642      2.00000
      5     -16.5159      2.00000
      6     -16.4171      2.00000
      7     -12.8813      2.00000
      8     -12.4721      2.00000
      9     -12.4136      2.00000
     10      -0.8727      2.00000
     11      -0.7034      2.00000
     12      -0.1738      2.00000
     13      -0.0159      2.00000
     14       0.1711      2.00000
     15       1.1305      2.00000
     16       2.6237      2.00000
     17       2.6620      2.00000
     18       3.3996      2.01304
     19       7.4862     -0.00000
     20       7.6178     -0.00000
     21       7.8373     -0.00000
     22       9.6356      0.00000

 k-point    59 :       0.0000   -0.2000    0.4000
  band No.  band energies     occupation 
      1     -29.0536      2.00000
      2     -28.9980      2.00000
      3     -28.9641      2.00000
      4     -16.6312      2.00000
      5     -16.4564      2.00000
      6     -16.3786      2.00000
      7     -13.1813      2.00000
      8     -12.7023      2.00000
      9     -12.4777      2.00000
     10      -0.7020      2.00000
     11      -0.2082      2.00000
     12       0.5972      2.00000
     13       0.7224      2.00000
     14       1.1928      2.00000
     15       1.5809      2.00000
     16       2.1838      2.00000
     17       2.5339      2.00000
     18       2.6907      2.00000
     19       6.5405     -0.00000
     20       7.4165     -0.00000
     21       7.5506     -0.00000
     22       8.8332     -0.00000

 k-point    60 :       0.2000   -0.2000    0.4000
  band No.  band energies     occupation 
      1     -29.0526      2.00000
      2     -28.9975      2.00000
      3     -28.9896      2.00000
      4     -16.6017      2.00000
      5     -16.4510      2.00000
      6     -16.4271      2.00000
      7     -13.0265      2.00000
      8     -12.6532      2.00000
      9     -12.4633      2.00000
     10      -0.6824      2.00000
     11      -0.2991      2.00000
     12       0.0424      2.00000
     13       0.3847      2.00000
     14       0.7886      2.00000
     15       1.4804      2.00000
     16       2.5264      2.00000
     17       2.6305      2.00000
     18       2.7825      2.00000
     19       6.8058     -0.00000
     20       7.4899     -0.00000
     21       7.5673     -0.00000
     22       9.6627      0.00000

 k-point    61 :       0.4000   -0.2000    0.4000
  band No.  band energies     occupation 
      1     -29.0512      2.00000
      2     -29.0323      2.00000
      3     -28.9948      2.00000
      4     -16.5589      2.00000
      5     -16.5185      2.00000
      6     -16.4221      2.00000
      7     -12.8964      2.00000
      8     -12.4648      2.00000
      9     -12.4044      2.00000
     10      -0.8209      2.00000
     11      -0.6473      2.00000
     12      -0.3484      2.00000
     13      -0.0440      2.00000
     14       0.2353      2.00000
     15       1.1834      2.00000
     16       2.6445      2.00000
     17       2.6695      2.00000
     18       3.3866      2.03500
     19       7.4475     -0.00000
     20       7.6214     -0.00000
     21       7.8536     -0.00000
     22       9.6023      0.00000

 k-point    62 :      -0.4000   -0.2000    0.4000
  band No.  band energies     occupation 
      1     -29.0513      2.00000
      2     -29.0321      2.00000
      3     -28.9949      2.00000
      4     -16.5575      2.00000
      5     -16.5203      2.00000
      6     -16.4220      2.00000
      7     -12.8956      2.00000
      8     -12.4602      2.00000
      9     -12.4090      2.00000
     10      -0.8489      2.00000
     11      -0.6943      2.00000
     12      -0.2486      2.00000
     13      -0.0114      2.00000
     14       0.2018      2.00000
     15       1.1643      2.00000
     16       2.6241      2.00000
     17       2.6721      2.00000
     18       3.3877      2.03339
     19       7.4803     -0.00000
     20       7.5894     -0.00000
     21       7.8647     -0.00000
     22       9.6351      0.00000

 k-point    63 :      -0.2000   -0.2000    0.4000
  band No.  band energies     occupation 
      1     -29.0527      2.00000
      2     -28.9969      2.00000
      3     -28.9901      2.00000
      4     -16.6014      2.00000
      5     -16.4524      2.00000
      6     -16.4265      2.00000
      7     -13.0237      2.00000
      8     -12.6555      2.00000
      9     -12.4629      2.00000
     10      -0.7174      2.00000
     11      -0.2690      2.00000
     12      -0.0145      2.00000
     13       0.4638      2.00000
     14       0.8582      2.00000
     15       1.4233      2.00000
     16       2.5248      2.00000
     17       2.5518      2.00000
     18       2.8017      2.00000
     19       6.8704     -0.00000
     20       7.4482     -0.00000
     21       7.5801     -0.00000
     22       9.7038      0.00000


--------------------------------------------------------------------------------------------------------


 soft charge-density along one line, spin component           1
         0         1         2         3         4         5         6         7         8         9
 total charge-density along one line
 
 pseudopotential strength for first ion, spin component:           1
-30.177  -0.008  -0.003   7.064   0.004   0.002   0.001   0.002
 -0.008 -30.170  -0.005   0.004   7.060   0.002  -0.000   0.002
 -0.003  -0.005 -30.182   0.002   0.002   7.066   0.002  -0.000
  7.064   0.004   0.002   3.776  -0.002  -0.001   0.001   0.002
  0.004   7.060   0.002  -0.002   3.778  -0.001   0.000   0.001
  0.002   0.002   7.066  -0.001  -0.001   3.775   0.002   0.000
  0.001  -0.000   0.002   0.001   0.000   0.002  -3.637  -0.003
  0.002   0.002  -0.000   0.002   0.001   0.000  -0.003  -3.631
  0.006  -0.016   0.003  -0.003   0.010  -0.002   0.001  -0.002
 -0.000   0.001   0.002   0.000   0.001   0.002  -0.004  -0.002
  0.009  -0.000  -0.006  -0.006   0.000   0.003  -0.000   0.003
  0.001  -0.000   0.002   0.001   0.000   0.002  -3.812  -0.003
  0.002   0.002  -0.000   0.003   0.002   0.000  -0.003  -3.804
  0.007  -0.020   0.004  -0.004   0.011  -0.002   0.002  -0.002
 -0.000   0.002   0.002   0.000   0.001   0.003  -0.005  -0.002
  0.011  -0.000  -0.007  -0.007   0.000   0.004  -0.000   0.004
  0.004   0.005   0.002  -0.001  -0.001  -0.001   0.001   0.002
  0.011   0.016   0.007  -0.003  -0.004  -0.002   0.002   0.004
 total augmentation occupancy for first ion, spin component:           1
  1.976  -0.000  -0.000  -0.064  -0.001  -0.000  -0.004  -0.012  -0.031   0.001  -0.050   0.004   0.011   0.027  -0.001   0.043
 -0.000   1.977  -0.000  -0.001  -0.063  -0.000   0.001  -0.010   0.083  -0.006   0.001  -0.001   0.010  -0.071   0.005  -0.001
 -0.000  -0.000   1.976  -0.000  -0.000  -0.065  -0.006   0.001  -0.019  -0.010   0.031   0.006  -0.001   0.016   0.010  -0.027
 -0.064  -0.001  -0.000   0.335  -0.009  -0.003  -0.050  -0.134  -0.225   0.005  -0.361   0.035   0.096   0.157  -0.004   0.251
 -0.001  -0.063  -0.000  -0.009   0.342  -0.005   0.005  -0.110   0.582  -0.061   0.007  -0.004   0.078  -0.406   0.043  -0.005
 -0.000  -0.000  -0.065  -0.003  -0.005   0.331  -0.079   0.005  -0.135  -0.120   0.224   0.055  -0.004   0.094   0.085  -0.156
 -0.004   0.001  -0.006  -0.050   0.005  -0.079   3.837   0.004   0.188  -0.012   0.002  -2.401  -0.006  -0.137   0.003  -0.001
 -0.012  -0.010   0.001  -0.134  -0.110   0.005   0.004   4.211  -0.258   0.019   0.413  -0.006  -2.648   0.188  -0.016  -0.301
 -0.031   0.083  -0.019  -0.225   0.582  -0.135   0.188  -0.258  13.841  -0.148   0.096  -0.137   0.189  -9.634   0.108  -0.071
  0.001  -0.006  -0.010   0.005  -0.061  -0.120  -0.012   0.019  -0.148   4.037  -0.238   0.003  -0.016   0.108  -2.532   0.173
 -0.050   0.001   0.031  -0.361   0.007   0.224   0.002   0.413   0.096  -0.238  13.313  -0.001  -0.302  -0.071   0.174  -9.244
  0.004  -0.001   0.006   0.035  -0.004   0.055  -2.401  -0.006  -0.137   0.003  -0.001   1.511   0.007   0.100   0.002   0.001
  0.011   0.010  -0.001   0.096   0.078  -0.004  -0.006  -2.648   0.189  -0.016  -0.302   0.007   1.676  -0.138   0.013   0.221
  0.027  -0.071   0.016   0.157  -0.406   0.094  -0.137   0.188  -9.634   0.108  -0.071   0.100  -0.138   6.778  -0.079   0.053
 -0.001   0.005   0.010  -0.004   0.043   0.085   0.003  -0.016   0.108  -2.532   0.174   0.002   0.013  -0.079   1.597  -0.127
  0.043  -0.001  -0.027   0.251  -0.005  -0.156  -0.001  -0.301  -0.071   0.173  -9.244   0.001   0.221   0.053  -0.127   6.487
  0.003   0.003   0.002   0.067   0.090   0.042  -0.069  -0.190   0.125  -0.107  -0.052   0.047   0.133  -0.090   0.074   0.037
 -0.000   0.000  -0.000  -0.001  -0.001  -0.000   0.002   0.007  -0.003   0.004   0.001  -0.002  -0.005   0.002  -0.003  -0.001


------------------------ aborting loop because EDIFF is reached ----------------------------------------


    CHARGE:  cpu time    0.01: real time    0.01
    FORLOC:  cpu time    0.00: real time    0.00
    FORNL :  cpu time    0.06: real time    0.06
    STRESS:  cpu time    0.63: real time    0.63
    FORCOR:  cpu time    0.00: real time    0.00
    FORHAR:  cpu time    0.00: real time    0.00
    MIXING:  cpu time    0.00: real time    0.00
    OFIELD:  cpu time    0.00: real time    0.00

  FORCE on cell =-STRESS in cart. coord.  units (eV):
  Direction    XX          YY          ZZ          XY          YZ          ZX
  --------------------------------------------------------------------------------------
  Alpha Z   166.69950   166.69950   166.69950
  Ewald    -751.15916  -755.26066  -761.49761    -1.30837    -6.21132    -3.17533
  Hartree   235.36685   231.86112   226.07172    -0.58729    -3.13087    -1.53898
  E(xc)    -170.37932  -170.38306  -170.38590    -0.00307    -0.01460    -0.00716
  Local     -47.70363   -40.11185   -28.07124     1.88358     9.39465     4.72761
  n-local   -88.11801   -88.19005   -88.26425    -0.01156     0.02633    -0.00101
  augment   132.77760   132.80198   132.82680    -0.00830    -0.04873    -0.02371
  Kinetic   521.34950   521.78221   522.36791     0.17058     0.44078     0.25228
  Fock        0.00000     0.00000     0.00000     0.00000     0.00000     0.00000
  -------------------------------------------------------------------------------------
  Total      -1.16667    -0.80082    -0.25308     0.13557     0.45624     0.23372
  in kB     -31.94675   -21.92854    -6.92995     3.71227    12.49301     6.39980
  external pressure =      -20.27 kB  Pullay stress =        0.00 kB


 VOLUME and BASIS-vectors are now :
 -----------------------------------------------------------------------------
  energy-cutoff  :      400.00
  volume of cell :       58.51
      direct lattice vectors                 reciprocal lattice vectors
     3.882200000  0.000000000  0.000000000     0.257585905  0.000000000  0.000000000
     0.000000000  3.882200000  0.000000000     0.000000000  0.257585905  0.000000000
     0.000000000  0.000000000  3.882200000     0.000000000  0.000000000  0.257585905

  length of vectors
     3.882200000  3.882200000  3.882200000     0.257585905  0.257585905  0.257585905


 FORCES acting on ions
    electron-ion (+dipol)            ewald-force                    non-local-force                 convergence-correction
 -----------------------------------------------------------------------------------------------
   -.227E+00 -.375E+01 -.845E+01   0.156E+00 0.361E+01 0.817E+01   0.713E-01 0.129E+00 0.227E+00   -.445E-02 -.678E-02 0.122E-01
   0.198E+02 0.372E+02 0.557E+02   -.195E+02 -.366E+02 -.548E+02   -.330E+00 -.590E+00 -.867E+00   -.148E-02 -.160E-02 -.896E-03
   -.145E+02 -.573E+01 -.821E+01   0.168E+02 0.590E+01 0.830E+01   -.228E+01 -.108E+00 -.418E-01   -.101E-01 -.535E-01 -.397E-01
   -.195E+01 -.215E+02 -.642E+01   0.194E+01 0.252E+02 0.626E+01   0.377E-01 -.368E+01 0.183E+00   -.197E-01 -.312E-02 -.116E-01
   -.758E+00 -.226E+01 -.271E+02   0.582E+00 0.196E+01 0.321E+02   0.169E+00 0.292E+00 -.505E+01   0.300E-02 0.784E-02 0.393E-01
 -----------------------------------------------------------------------------------------------
   0.237E+01 0.402E+01 0.555E+01   -.144E-14 0.488E-14 0.711E-14   -.233E+01 -.396E+01 -.555E+01   -.327E-01 -.571E-01 -.619E-03
 
 
 POSITION                                       TOTAL-FORCE (eV/Angst)
 -----------------------------------------------------------------------------------
      0.03764      0.06162      0.08283        -0.005453     -0.015557     -0.043903
      2.01231      2.07743      2.14881        -0.006371     -0.006938      0.015049
      1.92969     -0.03888     -0.06956         0.015428      0.008100      0.006329
     -0.02497      1.92414     -0.08241         0.000981      0.013786      0.011691
     -0.03365     -0.06447      1.91900        -0.004584      0.000608      0.010834
 -----------------------------------------------------------------------------------
    total drift:                                0.006049      0.000030     -0.001982


--------------------------------------------------------------------------------------------------------



  FREE ENERGIE OF THE ION-ELECTRON SYSTEM (eV)
  ---------------------------------------------------
  free  energy   TOTEN  =       -40.10772830 eV

  energy  without entropy=      -40.11448253  energy(sigma->0) =      -40.10997971
 
 d Force = 0.3319483E-04[-0.407E-04, 0.107E-03]  d Energy =-0.8644075E-05 0.418E-04
 d Force = 0.1963510E+00[ 0.193E+00, 0.199E+00]  d Ewald  = 0.1963502E+00 0.752E-06


--------------------------------------------------------------------------------------------------------


    POTLOK:  cpu time    0.01: real time    0.01


--------------------------------------------------------------------------------------------------------


 stress matrix after NEB project (eV)
     -1.16667      0.13557      0.23372
      0.13557     -0.80082      0.45624
      0.23372      0.45624     -0.25308
  FORCES: max atom, RMS     0.046896    0.025786
  FORCE total and by dimension    0.057659    0.043903
  Stress total and by dimension    1.621356    1.166675


--------------------------------------------------------------------------------------------------------


  
 reached required accuracy - stopping structural energy minimisation
 writing wavefunctions
     LOOP+:  cpu time    2.24: real time    2.30
    4ORBIT:  cpu time    0.00: real time    0.00

 total amount of memory used by VASP on root node    61338. kBytes
========================================================================

   base      :      30000. kBytes
   nonl-proj :      29425. kBytes
   fftplans  :        145. kBytes
   grid      :        538. kBytes
   one-center:         77. kBytes
   wavefun   :       1153. kBytes
 
  
  
 General timing and accounting informations for this job:
 ========================================================
  
                  Total CPU time used (sec):       57.833
                            User time (sec):       57.394
                          System time (sec):        0.439
                         Elapsed time (sec):       58.034
  
                   Maximum memory used (kb):       89228.
                   Average memory used (kb):           0.
  
                          Minor page faults:        29171
                          Major page faults:            0
                 Voluntary context switches:         1639
