 vasp.5.3.5 31Mar14 (build Dec 17 2015 22:09:37) complex                        
  
 executed on             LinuxIFC date 2017.03.19  16:23:35
 running on   22 total cores
 distrk:  each k-point on   22 cores,    1 groups
 distr:  one band on NCORES_PER_BAND=   1 cores,   22 groups


--------------------------------------------------------------------------------------------------------


 INCAR:
 POTCAR:    PAW_PBE Ti_pv 07Sep2000               
 POTCAR:    PAW_PBE Ca_pv 06Sep2000               
 POTCAR:    PAW_PBE O 08Apr2002                   

 ----------------------------------------------------------------------------- 
|                                                                             |
|           W    W    AA    RRRRR   N    N  II  N    N   GGGG   !!!           |
|           W    W   A  A   R    R  NN   N  II  NN   N  G    G  !!!           |
|           W    W  A    A  R    R  N N  N  II  N N  N  G       !!!           |
|           W WW W  AAAAAA  RRRRR   N  N N  II  N  N N  G  GGG   !            |
|           WW  WW  A    A  R   R   N   NN  II  N   NN  G    G                |
|           W    W  A    A  R    R  N    N  II  N    N   GGGG   !!!           |
|                                                                             |
|      For optimal performance we recommend to set                            |
|        NCORE= 4 - approx SQRT( number of cores)                             |
|      NCORE specifies how many cores store one orbital (NPAR=cpu/NCORE).     |
|      This setting can  greatly improve the performance of VASP for DFT.     |
|      The default, NPAR=number of cores might be grossly inefficient         |
|      on modern multi-core architectures or massively parallel machines.     |
|      Do your own testing !!!!                                               |
|      Unfortunately you need to use the default for GW and RPA calculations. |
|      (for HF NCORE is supported but not extensively tested yet)             |
|                                                                             |
 ----------------------------------------------------------------------------- 

 POTCAR:    PAW_PBE Ti_pv 07Sep2000               
   VRHFIN =Ti: d3 s1                                                            
   LEXCH  = PE                                                                  
   EATOM  =  1042.5995 eV,   76.6289 Ry                                         
                                                                                
   TITEL  = PAW_PBE Ti_pv 07Sep2000                                             
   LULTRA =        F    use ultrasoft PP ?                                      
   IUNSCR =        1    unscreen: 0-lin 1-nonlin 2-no                           
   RPACOR =    2.200    partial core radius                                     
   POMASS =   47.880; ZVAL   =   10.000    mass and valenz                      
   RCORE  =    2.500    outmost cutoff radius                                   
   RWIGS  =    2.500; RWIGS  =    1.323    wigner-seitz radius (au A)           
   ENMAX  =  222.335; ENMIN  =  166.751 eV                                      
   RCLOC  =    1.701    cutoff for local pot                                    
   LCOR   =        T    correct aug charges                                     
   LPAW   =        T    paw PP                                                  
   EAUG   =  482.848                                                            
   DEXC   =    0.000                                                            
   RMAX   =    2.564    core radius for proj-oper                               
   RAUG   =    1.300    factor for augmentation sphere                          
   RDEP   =    2.538    radius for radial grids                                 
   RDEPT  =    1.952    core radius for aug-charge                              
                                                                                
   Atomic configuration                                                         
    8 entries                                                                   
     n  l   j            E        occ.                                          
     1  0  0.50     -4865.3608   2.0000                                         
     2  0  0.50      -533.1368   2.0000                                         
     2  1  1.50      -440.5031   6.0000                                         
     3  0  0.50       -59.3186   2.0000                                         
     3  1  1.50       -35.7012   6.0000                                         
     3  2  2.50        -1.9157   3.0000                                         
     4  0  0.50        -3.7291   1.0000                                         
     4  3  2.50        -1.3606   0.0000                                         
   Description                                                                  
     l       E           TYP  RCUT    TYP  RCUT                                 
     1    -35.7012140     23  2.300                                             
     1     -1.3605826     23  2.300                                             
     2     -1.9156996     23  2.500                                             
     2     -0.4063033     23  2.500                                             
     0     -3.7290856     23  2.500                                             
     0     20.4087390     23  2.500                                             
  local pseudopotential read in
  partial core-charges read in
  partial kinetic energy density read in
  atomic valenz-charges read in
  non local Contribution for L=           1  read in
    real space projection operators read in
  non local Contribution for L=           1  read in
    real space projection operators read in
  non local Contribution for L=           2  read in
    real space projection operators read in
  non local Contribution for L=           2  read in
    real space projection operators read in
  non local Contribution for L=           0  read in
    real space projection operators read in
  non local Contribution for L=           0  read in
    real space projection operators read in
    PAW grid and wavefunctions read in
 
   number of l-projection  operators is LMAX  =           6
   number of lm-projection operators is LMMAX =          18
 
 POTCAR:    PAW_PBE Ca_pv 06Sep2000               
   VRHFIN =Ca: p6s2d0.01                                                        
   LEXCH  = PE                                                                  
   EATOM  =   612.6676 eV,   45.0298 Ry                                         
                                                                                
   TITEL  = PAW_PBE Ca_pv 06Sep2000                                             
   LULTRA =        F    use ultrasoft PP ?                                      
   IUNSCR =        1    unscreen: 0-lin 1-nonlin 2-no                           
   RPACOR =    2.300    partial core radius                                     
   POMASS =   40.078; ZVAL   =    8.000    mass and valenz                      
   RCORE  =    3.000    outmost cutoff radius                                   
   RWIGS  =    3.300; RWIGS  =    1.746    wigner-seitz radius (au A)           
   ENMAX  =  119.559; ENMIN  =   89.670 eV                                      
   RCLOC  =    1.709    cutoff for local pot                                    
   LCOR   =        T    correct aug charges                                     
   LPAW   =        T    paw PP                                                  
   EAUG   =  325.799                                                            
   DEXC   =    0.000                                                            
   RMAX   =    3.072    core radius for proj-oper                               
   RAUG   =    1.300    factor for augmentation sphere                          
   RDEP   =    3.090    radius for radial grids                                 
   RDEPT  =    2.377    core radius for aug-charge                              
                                                                                
   Atomic configuration                                                         
    7 entries                                                                   
     n  l   j            E        occ.                                          
     1  0  0.50     -3949.1705   2.0000                                         
     2  0  0.50      -414.3434   2.0000                                         
     2  1  1.50      -334.7047   6.0000                                         
     3  0  0.50       -47.0896   2.0000                                         
     3  1  1.50       -28.0061   6.0000                                         
     4  0  0.50        -3.7663   2.0000                                         
     3  2  1.50        -4.0817   0.0000                                         
   Description                                                                  
     l       E           TYP  RCUT    TYP  RCUT                                 
     1    -28.0060855     23  3.000                                             
     1      1.3605826     23  3.000                                             
     0     -3.7663320     23  3.000                                             
     0      4.1207953     23  3.000                                             
     2     -4.0817478     23  3.000                                             
     2     -0.8716232     23  3.000                                             
  local pseudopotential read in
  partial core-charges read in
  partial kinetic energy density read in
  atomic valenz-charges read in
  non local Contribution for L=           1  read in
    real space projection operators read in
  non local Contribution for L=           1  read in
    real space projection operators read in
  non local Contribution for L=           0  read in
    real space projection operators read in
  non local Contribution for L=           0  read in
    real space projection operators read in
  non local Contribution for L=           2  read in
    real space projection operators read in
  non local Contribution for L=           2  read in
    real space projection operators read in
    PAW grid and wavefunctions read in
 
   number of l-projection  operators is LMAX  =           6
   number of lm-projection operators is LMMAX =          18
 
 POTCAR:    PAW_PBE O 08Apr2002                   
   VRHFIN =O: s2p4                                                              
   LEXCH  = PE                                                                  
   EATOM  =   432.3788 eV,   31.7789 Ry                                         
                                                                                
   TITEL  = PAW_PBE O 08Apr2002                                                 
   LULTRA =        F    use ultrasoft PP ?                                      
   IUNSCR =        1    unscreen: 0-lin 1-nonlin 2-no                           
   RPACOR =    1.200    partial core radius                                     
   POMASS =   16.000; ZVAL   =    6.000    mass and valenz                      
   RCORE  =    1.520    outmost cutoff radius                                   
   RWIGS  =    1.550; RWIGS  =    0.820    wigner-seitz radius (au A)           
   ENMAX  =  400.000; ENMIN  =  300.000 eV                                      
   ICORE  =        2    local potential                                         
   LCOR   =        T    correct aug charges                                     
   LPAW   =        T    paw PP                                                  
   EAUG   =  605.392                                                            
   DEXC   =    0.000                                                            
   RMAX   =    1.553    core radius for proj-oper                               
   RAUG   =    1.300    factor for augmentation sphere                          
   RDEP   =    1.550    radius for radial grids                                 
   RDEPT  =    1.329    core radius for aug-charge                              
                                                                                
   Atomic configuration                                                         
    4 entries                                                                   
     n  l   j            E        occ.                                          
     1  0  0.50      -514.6923   2.0000                                         
     2  0  0.50       -23.9615   2.0000                                         
     2  1  0.50        -9.0305   4.0000                                         
     3  2  1.50        -9.5241   0.0000                                         
   Description                                                                  
     l       E           TYP  RCUT    TYP  RCUT                                 
     0    -23.9615318     23  1.200                                             
     0     -9.5240782     23  1.200                                             
     1     -9.0304911     23  1.520                                             
     1      8.1634956     23  1.520                                             
     2     -9.5240782      7  1.500                                             
  local pseudopotential read in
  partial core-charges read in
  partial kinetic energy density read in
  kinetic energy density of atom read in
  atomic valenz-charges read in
  non local Contribution for L=           0  read in
    real space projection operators read in
  non local Contribution for L=           0  read in
    real space projection operators read in
  non local Contribution for L=           1  read in
    real space projection operators read in
  non local Contribution for L=           1  read in
    real space projection operators read in
    PAW grid and wavefunctions read in
 
   number of l-projection  operators is LMAX  =           4
   number of lm-projection operators is LMMAX =           8
 
  PAW_PBE Ti_pv 07Sep2000               :
 energy of atom  1       EATOM=-1042.5995
 kinetic energy error for atom=    0.0037 (will be added to EATOM!!)
  PAW_PBE Ca_pv 06Sep2000               :
 energy of atom  2       EATOM= -612.6676
 kinetic energy error for atom=    0.0002 (will be added to EATOM!!)
  PAW_PBE O 08Apr2002                   :
 energy of atom  3       EATOM= -432.3788
 kinetic energy error for atom=    0.1156 (will be added to EATOM!!)
 
 
 POSCAR: CaTiO3                                  
  positions in direct lattice
  velocities in cartesian coordinates
  No initial velocities read in
 exchange correlation table for  LEXCH =        8
   RHO(1)=    0.500       N(1)  =     2000
   RHO(2)=  100.500       N(2)  =     4000

 VTST: version 3.1, (03/28/14)

 CHAIN: initializing optimizer
 
 OPT: Using VASP Conjugate-Gradient optimizer
 CHAIN: Read ICHAIN            0
 
 POSCAR: CaTiO3                                  
  positions in direct lattice
  velocities in cartesian coordinates
  No initial velocities read in
 


--------------------------------------------------------------------------------------------------------


 ion  position               nearest neighbor table
   1  0.000  0.000  0.000-   3 1.94   4 1.94   5 1.94   5 1.94   4 1.94   3 1.94   2 3.23   2 3.27
                             2 3.32   2 3.37   2 3.37   2 3.41   2 3.45   2 3.50
   2  0.510  0.520  0.530-   3 2.61   4 2.64   5 2.67   4 2.69   5 2.72   3 2.72   3 2.78   5 2.78
                             4 2.80   5 2.83   4 2.86   3 2.88   1 3.23   1 3.27   1 3.32   1 3.37
   3  0.500  0.000  0.000-   1 1.94   1 1.94   2 2.61   2 2.72   2 2.78   2 2.88
   4  0.000  0.500  0.000-   1 1.94   1 1.94   2 2.64   2 2.69   2 2.80   2 2.86
   5  0.000  0.000  0.500-   1 1.94   1 1.94   2 2.67   2 2.72   2 2.78   2 2.83
 
  LATTYP: Found a simple cubic cell.
 ALAT       =     3.8822000000
  
  Lattice vectors:
  
 A1 = (   3.8822000000,   0.0000000000,   0.0000000000)
 A2 = (   0.0000000000,   3.8822000000,   0.0000000000)
 A3 = (   0.0000000000,   0.0000000000,   3.8822000000)


Analysis of symmetry for initial positions (statically):
=====================================================================
 Subroutine PRICEL returns:
 Original cell was already a primitive cell.
 

 Routine SETGRP: Setting up the symmetry group for a 
 simple cubic supercell.


 Subroutine GETGRP returns: Found  1 space group operations
 (whereof  1 operations were pure point group operations)
 out of a pool of 48 trial point group operations.


The static configuration has the point symmetry C_1 .


Analysis of symmetry for dynamics (positions and initial velocities):
=====================================================================
 Subroutine PRICEL returns:
 Original cell was already a primitive cell.
 

 Routine SETGRP: Setting up the symmetry group for a 
 simple cubic supercell.


 Subroutine GETGRP returns: Found  1 space group operations
 (whereof  1 operations were pure point group operations)
 out of a pool of 48 trial point group operations.


The dynamic configuration has the point symmetry C_1 .
 
 
 KPOINTS: k-points                                

Automatic generation of k-mesh.
Space group operators:
 irot       det(A)        alpha          n_x          n_y          n_z        tau_x        tau_y        tau_z
    1     1.000000     0.000000     1.000000     0.000000     0.000000     0.000000     0.000000     0.000000
 
 Subroutine IBZKPT returns following result:
 ===========================================
 
 Found     63 irreducible k-points:
 
 Following reciprocal coordinates:
            Coordinates               Weight
  0.000000  0.000000  0.000000      1.000000
  0.200000  0.000000  0.000000      2.000000
  0.400000  0.000000  0.000000      2.000000
  0.000000  0.200000  0.000000      2.000000
  0.200000  0.200000  0.000000      2.000000
  0.400000  0.200000  0.000000      2.000000
 -0.400000  0.200000  0.000000      2.000000
 -0.200000  0.200000  0.000000      2.000000
  0.000000  0.400000  0.000000      2.000000
  0.200000  0.400000  0.000000      2.000000
  0.400000  0.400000  0.000000      2.000000
 -0.400000  0.400000  0.000000      2.000000
 -0.200000  0.400000  0.000000      2.000000
  0.000000  0.000000  0.200000      2.000000
  0.200000  0.000000  0.200000      2.000000
  0.400000  0.000000  0.200000      2.000000
 -0.400000  0.000000  0.200000      2.000000
 -0.200000  0.000000  0.200000      2.000000
  0.000000  0.200000  0.200000      2.000000
  0.200000  0.200000  0.200000      2.000000
  0.400000  0.200000  0.200000      2.000000
 -0.400000  0.200000  0.200000      2.000000
 -0.200000  0.200000  0.200000      2.000000
  0.000000  0.400000  0.200000      2.000000
  0.200000  0.400000  0.200000      2.000000
  0.400000  0.400000  0.200000      2.000000
 -0.400000  0.400000  0.200000      2.000000
 -0.200000  0.400000  0.200000      2.000000
  0.000000 -0.400000  0.200000      2.000000
  0.200000 -0.400000  0.200000      2.000000
  0.400000 -0.400000  0.200000      2.000000
 -0.400000 -0.400000  0.200000      2.000000
 -0.200000 -0.400000  0.200000      2.000000
  0.000000 -0.200000  0.200000      2.000000
  0.200000 -0.200000  0.200000      2.000000
  0.400000 -0.200000  0.200000      2.000000
 -0.400000 -0.200000  0.200000      2.000000
 -0.200000 -0.200000  0.200000      2.000000
  0.000000  0.000000  0.400000      2.000000
  0.200000  0.000000  0.400000      2.000000
  0.400000  0.000000  0.400000      2.000000
 -0.400000  0.000000  0.400000      2.000000
 -0.200000  0.000000  0.400000      2.000000
  0.000000  0.200000  0.400000      2.000000
  0.200000  0.200000  0.400000      2.000000
  0.400000  0.200000  0.400000      2.000000
 -0.400000  0.200000  0.400000      2.000000
 -0.200000  0.200000  0.400000      2.000000
  0.000000  0.400000  0.400000      2.000000
  0.200000  0.400000  0.400000      2.000000
  0.400000  0.400000  0.400000      2.000000
 -0.400000  0.400000  0.400000      2.000000
 -0.200000  0.400000  0.400000      2.000000
  0.000000 -0.400000  0.400000      2.000000
  0.200000 -0.400000  0.400000      2.000000
  0.400000 -0.400000  0.400000      2.000000
 -0.400000 -0.400000  0.400000      2.000000
 -0.200000 -0.400000  0.400000      2.000000
  0.000000 -0.200000  0.400000      2.000000
  0.200000 -0.200000  0.400000      2.000000
  0.400000 -0.200000  0.400000      2.000000
 -0.400000 -0.200000  0.400000      2.000000
 -0.200000 -0.200000  0.400000      2.000000
 
 Following cartesian coordinates:
            Coordinates               Weight
  0.000000  0.000000  0.000000      1.000000
  0.200000  0.000000  0.000000      2.000000
  0.400000  0.000000  0.000000      2.000000
  0.000000  0.200000  0.000000      2.000000
  0.200000  0.200000  0.000000      2.000000
  0.400000  0.200000  0.000000      2.000000
 -0.400000  0.200000  0.000000      2.000000
 -0.200000  0.200000  0.000000      2.000000
  0.000000  0.400000  0.000000      2.000000
  0.200000  0.400000  0.000000      2.000000
  0.400000  0.400000  0.000000      2.000000
 -0.400000  0.400000  0.000000      2.000000
 -0.200000  0.400000  0.000000      2.000000
  0.000000  0.000000  0.200000      2.000000
  0.200000  0.000000  0.200000      2.000000
  0.400000  0.000000  0.200000      2.000000
 -0.400000  0.000000  0.200000      2.000000
 -0.200000  0.000000  0.200000      2.000000
  0.000000  0.200000  0.200000      2.000000
  0.200000  0.200000  0.200000      2.000000
  0.400000  0.200000  0.200000      2.000000
 -0.400000  0.200000  0.200000      2.000000
 -0.200000  0.200000  0.200000      2.000000
  0.000000  0.400000  0.200000      2.000000
  0.200000  0.400000  0.200000      2.000000
  0.400000  0.400000  0.200000      2.000000
 -0.400000  0.400000  0.200000      2.000000
 -0.200000  0.400000  0.200000      2.000000
  0.000000 -0.400000  0.200000      2.000000
  0.200000 -0.400000  0.200000      2.000000
  0.400000 -0.400000  0.200000      2.000000
 -0.400000 -0.400000  0.200000      2.000000
 -0.200000 -0.400000  0.200000      2.000000
  0.000000 -0.200000  0.200000      2.000000
  0.200000 -0.200000  0.200000      2.000000
  0.400000 -0.200000  0.200000      2.000000
 -0.400000 -0.200000  0.200000      2.000000
 -0.200000 -0.200000  0.200000      2.000000
  0.000000  0.000000  0.400000      2.000000
  0.200000  0.000000  0.400000      2.000000
  0.400000  0.000000  0.400000      2.000000
 -0.400000  0.000000  0.400000      2.000000
 -0.200000  0.000000  0.400000      2.000000
  0.000000  0.200000  0.400000      2.000000
  0.200000  0.200000  0.400000      2.000000
  0.400000  0.200000  0.400000      2.000000
 -0.400000  0.200000  0.400000      2.000000
 -0.200000  0.200000  0.400000      2.000000
  0.000000  0.400000  0.400000      2.000000
  0.200000  0.400000  0.400000      2.000000
  0.400000  0.400000  0.400000      2.000000
 -0.400000  0.400000  0.400000      2.000000
 -0.200000  0.400000  0.400000      2.000000
  0.000000 -0.400000  0.400000      2.000000
  0.200000 -0.400000  0.400000      2.000000
  0.400000 -0.400000  0.400000      2.000000
 -0.400000 -0.400000  0.400000      2.000000
 -0.200000 -0.400000  0.400000      2.000000
  0.000000 -0.200000  0.400000      2.000000
  0.200000 -0.200000  0.400000      2.000000
  0.400000 -0.200000  0.400000      2.000000
 -0.400000 -0.200000  0.400000      2.000000
 -0.200000 -0.200000  0.400000      2.000000
 


--------------------------------------------------------------------------------------------------------




 Dimension of arrays:
   k-points           NKPTS =     63   k-points in BZ     NKDIM =     63   number of bands    NBANDS=     22
   number of dos      NEDOS =    301   number of ions     NIONS =      5
   non local maximal  LDIM  =      6   non local SUM 2l+1 LMDIM =     18
   total plane-waves  NPLWV =   8000
   max r-space proj   IRMAX =      1   max aug-charges    IRDMAX=   9776
   dimension x,y,z NGX =    20 NGY =   20 NGZ =   20
   dimension x,y,z NGXF=    40 NGYF=   40 NGZF=   40
   support grid    NGXF=    40 NGYF=   40 NGZF=   40
   ions per type =               1   1   3
 NGX,Y,Z   is equivalent  to a cutoff of   8.56,  8.56,  8.56 a.u.
 NGXF,Y,Z  is equivalent  to a cutoff of  17.13, 17.13, 17.13 a.u.


 I would recommend the setting:
   dimension x,y,z NGX =    19 NGY =   19 NGZ =   19
 SYSTEM =  unknown system                          
 POSCAR =  CaTiO3                                  

 Startparameter for this run:
   NWRITE =      2    write-flag & timer
   PREC   = normal    normal or accurate (medium, high low for compatibility)
   ISTART =      0    job   : 0-new  1-cont  2-samecut
   ICHARG =      2    charge: 1-file 2-atom 10-const
   ISPIN  =      1    spin polarized calculation?
   LNONCOLLINEAR =      F non collinear calculations
   LSORBIT =      F    spin-orbit coupling
   INIWAV =      1    electr: 0-lowe 1-rand  2-diag
   LASPH  =      F    aspherical Exc in radial PAW
   METAGGA=      F    non-selfconsistent MetaGGA calc.

 Electronic Relaxation 1
   ENCUT  =  400.0 eV  29.40 Ry    5.42 a.u.   6.33  6.33  6.33*2*pi/ulx,y,z
   ENINI  =  400.0     initial cutoff
   ENAUG  =  605.4 eV  augmentation charge cutoff
   NELM   =     60;   NELMIN=  2; NELMDL=  0     # of ELM steps 
   EDIFF  = 0.1E-03   stopping-criterion for ELM
   LREAL  =      F    real-space projection
   NLSPLINE    = F    spline interpolate recip. space projectors
   LCOMPAT=      F    compatible to vasp.4.4
   GGA_COMPAT  = T    GGA compatible to vasp.4.4-vasp.4.6
   LMAXPAW     = -100 max onsite density
   LMAXMIX     =    2 max onsite mixed and CHGCAR
   VOSKOWN=      0    Vosko Wilk Nusair interpolation
   ROPT   =    0.00000   0.00000   0.00000
 Ionic relaxation
   EDIFFG = 0.1E-02   stopping-criterion for IOM
   NSW    =   1024    number of steps for IOM
   NBLOCK =      1;   KBLOCK =   1024    inner block; outer block 
   IBRION =      2    ionic relax: 0-MD 1-quasi-New 2-CG
   NFREE  =      1    steps in history (QN), initial steepest desc. (CG)
   ISIF   =      2    stress and relaxation
   IWAVPR =     11    prediction:  0-non 1-charg 2-wave 3-comb
   ISYM   =      2    0-nonsym 1-usesym 2-fastsym
   LCORR  =      T    Harris-Foulkes like correction to forces

   POTIM  = 0.5000    time-step for ionic-motion
   TEIN   =    0.0    initial temperature
   TEBEG  =    0.0;   TEEND  =   0.0 temperature during run
   SMASS  =  -3.00    Nose mass-parameter (am)
   estimated Nose-frequenzy (Omega)   =  0.10E-29 period in steps =****** mass=  -0.344E-27a.u.
   SCALEE = 1.0000    scale energy and forces
   NPACO  =    256;   APACO  = 16.0  distance and # of slots for P.C.
   PSTRESS=    0.0 pullay stress

  Mass of Ions in am
   POMASS =  47.88 40.08 16.00
  Ionic Valenz
   ZVAL   =  10.00  8.00  6.00
  Atomic Wigner-Seitz radii
   RWIGS  =  -1.00 -1.00 -1.00
  virtual crystal weights 
   VCA    =   1.00  1.00  1.00
   NELECT =      36.0000    total number of electrons
   NUPDOWN=      -1.0000    fix difference up-down

 DOS related values:
   EMIN   =  10.00;   EMAX   =-10.00  energy-range for DOS
   EFERMI =   0.00
   ISMEAR =     1;   SIGMA  =   0.20  broadening in eV -4-tet -1-fermi 0-gaus

 Electronic relaxation 2 (details)
   IALGO  =     38    algorithm
   LDIAG  =      T    sub-space diagonalisation (order eigenvalues)
   LSUBROT=      F    optimize rotation matrix (better conditioning)
   TURBO    =      0    0=normal 1=particle mesh
   IRESTART =      0    0=no restart 2=restart with 2 vectors
   NREBOOT  =      0    no. of reboots
   NMIN     =      0    reboot dimension
   EREF     =   0.00    reference energy to select bands
   IMIX   =      4    mixing-type and parameters
     AMIX     =   0.40;   BMIX     =  1.00
     AMIX_MAG =   1.60;   BMIX_MAG =  1.00
     AMIN     =   0.10
     WC   =   100.;   INIMIX=   1;  MIXPRE=   1;  MAXMIX= -45

 Intra band minimization:
   WEIMIN = 0.0010     energy-eigenvalue tresh-hold
   EBREAK =  0.11E-05  absolut break condition
   DEPER  =   0.30     relativ break condition  

   TIME   =   0.40     timestep for ELM

  volume/ion in A,a.u.               =      11.70        78.97
  Fermi-wavevector in a.u.,A,eV,Ry     =   1.392401  2.631257 26.378723  1.938781
  Thomas-Fermi vector in A             =   2.516148
 
 Write flags
   LWAVE  =      T    write WAVECAR
   LCHARG =      T    write CHGCAR
   LVTOT  =      F    write LOCPOT, total local potential
   LVHAR  =      F    write LOCPOT, Hartree potential only
   LELF   =      F    write electronic localiz. function (ELF)
   LORBIT =      0    0 simple, 1 ext, 2 COOP (PROOUT)


 Dipole corrections
   LMONO  =      F    monopole corrections only (constant potential shift)
   LDIPOL =      F    correct potential (dipole corrections)
   IDIPOL =      0    1-x, 2-y, 3-z, 4-all directions 
   EPSILON=  1.0000000 bulk dielectric constant

 Exchange correlation treatment:
   GGA     =    --    GGA type
   LEXCH   =     8    internal setting for exchange type
   VOSKOWN=      0    Vosko Wilk Nusair interpolation
   LHFCALC =     F    Hartree Fock is set to
   LHFONE  =     F    Hartree Fock one center treatment
   AEXX    =    0.0000 exact exchange contribution

 Linear response parameters
   LEPSILON=     F    determine dielectric tensor
   LRPA    =     F    only Hartree local field effects (RPA)
   LNABLA  =     F    use nabla operator in PAW spheres
   LVEL    =     F    velocity operator in full k-point grid
   LINTERFAST=   F  fast interpolation
   KINTER  =     0    interpolate to denser k-point grid
   CSHIFT  =0.1000    complex shift for real part using Kramers Kronig
   OMEGAMAX=  -1.0    maximum frequency
   DEG_THRESHOLD= 0.2000000E-02 threshold for treating states as degnerate
   RTIME   =    0.100 relaxation time in fs

 Orbital magnetization related:
   ORBITALMAG=     F  switch on orbital magnetization
   LCHIMAG   =     F  perturbation theory with respect to B field
   DQ        =  0.001000  dq finite difference perturbation B field



--------------------------------------------------------------------------------------------------------


 conjugate gradient relaxation of ions
 charge density and potential will be updated during run
 non-spin polarized calculation
 Variant of blocked Davidson
 Davidson routine will perform the subspace rotation
 perform sub-space diagonalisation
    after iterative eigenvector-optimisation
 modified Broyden-mixing scheme, WC =      100.0
 initial mixing is a Kerker type mixing with AMIX =  0.4000 and BMIX =      1.0000
 Hartree-type preconditioning will be used
 using additional bands            4
 reciprocal scheme for non local part
 use partial core corrections
 calculate Harris-corrections to forces 
   (improved forces if not selfconsistent)
 use gradient corrections 
 use of overlap-Matrix (Vanderbilt PP)
 Methfessel and Paxton  Order N= 1 SIGMA  =   0.20


--------------------------------------------------------------------------------------------------------


  energy-cutoff  :      400.00
  volume of cell :       58.51
      direct lattice vectors                 reciprocal lattice vectors
     3.882200000  0.000000000  0.000000000     0.257585905  0.000000000  0.000000000
     0.000000000  3.882200000  0.000000000     0.000000000  0.257585905  0.000000000
     0.000000000  0.000000000  3.882200000     0.000000000  0.000000000  0.257585905

  length of vectors
     3.882200000  3.882200000  3.882200000     0.257585905  0.257585905  0.257585905


 
 k-points in units of 2pi/SCALE and weight: k-points                                
   0.00000000  0.00000000  0.00000000       0.008
   0.20000000  0.00000000  0.00000000       0.016
   0.40000000  0.00000000  0.00000000       0.016
   0.00000000  0.20000000  0.00000000       0.016
   0.20000000  0.20000000  0.00000000       0.016
   0.40000000  0.20000000  0.00000000       0.016
  -0.40000000  0.20000000  0.00000000       0.016
  -0.20000000  0.20000000  0.00000000       0.016
   0.00000000  0.40000000  0.00000000       0.016
   0.20000000  0.40000000  0.00000000       0.016
   0.40000000  0.40000000  0.00000000       0.016
  -0.40000000  0.40000000  0.00000000       0.016
  -0.20000000  0.40000000  0.00000000       0.016
   0.00000000  0.00000000  0.20000000       0.016
   0.20000000  0.00000000  0.20000000       0.016
   0.40000000  0.00000000  0.20000000       0.016
  -0.40000000  0.00000000  0.20000000       0.016
  -0.20000000  0.00000000  0.20000000       0.016
   0.00000000  0.20000000  0.20000000       0.016
   0.20000000  0.20000000  0.20000000       0.016
   0.40000000  0.20000000  0.20000000       0.016
  -0.40000000  0.20000000  0.20000000       0.016
  -0.20000000  0.20000000  0.20000000       0.016
   0.00000000  0.40000000  0.20000000       0.016
   0.20000000  0.40000000  0.20000000       0.016
   0.40000000  0.40000000  0.20000000       0.016
  -0.40000000  0.40000000  0.20000000       0.016
  -0.20000000  0.40000000  0.20000000       0.016
   0.00000000 -0.40000000  0.20000000       0.016
   0.20000000 -0.40000000  0.20000000       0.016
   0.40000000 -0.40000000  0.20000000       0.016
  -0.40000000 -0.40000000  0.20000000       0.016
  -0.20000000 -0.40000000  0.20000000       0.016
   0.00000000 -0.20000000  0.20000000       0.016
   0.20000000 -0.20000000  0.20000000       0.016
   0.40000000 -0.20000000  0.20000000       0.016
  -0.40000000 -0.20000000  0.20000000       0.016
  -0.20000000 -0.20000000  0.20000000       0.016
   0.00000000  0.00000000  0.40000000       0.016
   0.20000000  0.00000000  0.40000000       0.016
   0.40000000  0.00000000  0.40000000       0.016
  -0.40000000  0.00000000  0.40000000       0.016
  -0.20000000  0.00000000  0.40000000       0.016
   0.00000000  0.20000000  0.40000000       0.016
   0.20000000  0.20000000  0.40000000       0.016
   0.40000000  0.20000000  0.40000000       0.016
  -0.40000000  0.20000000  0.40000000       0.016
  -0.20000000  0.20000000  0.40000000       0.016
   0.00000000  0.40000000  0.40000000       0.016
   0.20000000  0.40000000  0.40000000       0.016
   0.40000000  0.40000000  0.40000000       0.016
  -0.40000000  0.40000000  0.40000000       0.016
  -0.20000000  0.40000000  0.40000000       0.016
   0.00000000 -0.40000000  0.40000000       0.016
   0.20000000 -0.40000000  0.40000000       0.016
   0.40000000 -0.40000000  0.40000000       0.016
  -0.40000000 -0.40000000  0.40000000       0.016
  -0.20000000 -0.40000000  0.40000000       0.016
   0.00000000 -0.20000000  0.40000000       0.016
   0.20000000 -0.20000000  0.40000000       0.016
   0.40000000 -0.20000000  0.40000000       0.016
  -0.40000000 -0.20000000  0.40000000       0.016
  -0.20000000 -0.20000000  0.40000000       0.016
 
 k-points in reciprocal lattice and weights: k-points                                
   0.00000000  0.00000000  0.00000000       0.008
   0.20000000  0.00000000  0.00000000       0.016
   0.40000000  0.00000000  0.00000000       0.016
   0.00000000  0.20000000  0.00000000       0.016
   0.20000000  0.20000000  0.00000000       0.016
   0.40000000  0.20000000  0.00000000       0.016
  -0.40000000  0.20000000  0.00000000       0.016
  -0.20000000  0.20000000  0.00000000       0.016
   0.00000000  0.40000000  0.00000000       0.016
   0.20000000  0.40000000  0.00000000       0.016
   0.40000000  0.40000000  0.00000000       0.016
  -0.40000000  0.40000000  0.00000000       0.016
  -0.20000000  0.40000000  0.00000000       0.016
   0.00000000  0.00000000  0.20000000       0.016
   0.20000000  0.00000000  0.20000000       0.016
   0.40000000  0.00000000  0.20000000       0.016
  -0.40000000  0.00000000  0.20000000       0.016
  -0.20000000  0.00000000  0.20000000       0.016
   0.00000000  0.20000000  0.20000000       0.016
   0.20000000  0.20000000  0.20000000       0.016
   0.40000000  0.20000000  0.20000000       0.016
  -0.40000000  0.20000000  0.20000000       0.016
  -0.20000000  0.20000000  0.20000000       0.016
   0.00000000  0.40000000  0.20000000       0.016
   0.20000000  0.40000000  0.20000000       0.016
   0.40000000  0.40000000  0.20000000       0.016
  -0.40000000  0.40000000  0.20000000       0.016
  -0.20000000  0.40000000  0.20000000       0.016
   0.00000000 -0.40000000  0.20000000       0.016
   0.20000000 -0.40000000  0.20000000       0.016
   0.40000000 -0.40000000  0.20000000       0.016
  -0.40000000 -0.40000000  0.20000000       0.016
  -0.20000000 -0.40000000  0.20000000       0.016
   0.00000000 -0.20000000  0.20000000       0.016
   0.20000000 -0.20000000  0.20000000       0.016
   0.40000000 -0.20000000  0.20000000       0.016
  -0.40000000 -0.20000000  0.20000000       0.016
  -0.20000000 -0.20000000  0.20000000       0.016
   0.00000000  0.00000000  0.40000000       0.016
   0.20000000  0.00000000  0.40000000       0.016
   0.40000000  0.00000000  0.40000000       0.016
  -0.40000000  0.00000000  0.40000000       0.016
  -0.20000000  0.00000000  0.40000000       0.016
   0.00000000  0.20000000  0.40000000       0.016
   0.20000000  0.20000000  0.40000000       0.016
   0.40000000  0.20000000  0.40000000       0.016
  -0.40000000  0.20000000  0.40000000       0.016
  -0.20000000  0.20000000  0.40000000       0.016
   0.00000000  0.40000000  0.40000000       0.016
   0.20000000  0.40000000  0.40000000       0.016
   0.40000000  0.40000000  0.40000000       0.016
  -0.40000000  0.40000000  0.40000000       0.016
  -0.20000000  0.40000000  0.40000000       0.016
   0.00000000 -0.40000000  0.40000000       0.016
   0.20000000 -0.40000000  0.40000000       0.016
   0.40000000 -0.40000000  0.40000000       0.016
  -0.40000000 -0.40000000  0.40000000       0.016
  -0.20000000 -0.40000000  0.40000000       0.016
   0.00000000 -0.20000000  0.40000000       0.016
   0.20000000 -0.20000000  0.40000000       0.016
   0.40000000 -0.20000000  0.40000000       0.016
  -0.40000000 -0.20000000  0.40000000       0.016
  -0.20000000 -0.20000000  0.40000000       0.016
 
 position of ions in fractional coordinates (direct lattice) 
   0.00000000  0.00000000  0.00000000
   0.51000000  0.52000000  0.53000000
   0.50000000  0.00000000  0.00000000
   0.00000000  0.50000000  0.00000000
   0.00000000  0.00000000  0.50000000
 
 position of ions in cartesian coordinates  (Angst):
   0.00000000  0.00000000  0.00000000
   1.97992200  2.01874400  2.05756600
   1.94110000  0.00000000  0.00000000
   0.00000000  1.94110000  0.00000000
   0.00000000  0.00000000  1.94110000
 


--------------------------------------------------------------------------------------------------------


 k-point  1 :   0.0000 0.0000 0.0000  plane waves:    1045
 k-point  2 :   0.2000 0.0000 0.0000  plane waves:    1069
 k-point  3 :   0.4000 0.0000 0.0000  plane waves:    1064
 k-point  4 :   0.0000 0.2000 0.0000  plane waves:    1069
 k-point  5 :   0.2000 0.2000 0.0000  plane waves:    1073
 k-point  6 :   0.4000 0.2000 0.0000  plane waves:    1072
 k-point  7 :  -0.4000 0.2000 0.0000  plane waves:    1072
 k-point  8 :  -0.2000 0.2000 0.0000  plane waves:    1073
 k-point  9 :   0.0000 0.4000 0.0000  plane waves:    1064
 k-point 10 :   0.2000 0.4000 0.0000  plane waves:    1072
 k-point 11 :   0.4000 0.4000 0.0000  plane waves:    1063
 k-point 12 :  -0.4000 0.4000 0.0000  plane waves:    1063
 k-point 13 :  -0.2000 0.4000 0.0000  plane waves:    1072
 k-point 14 :   0.0000 0.0000 0.2000  plane waves:    1069
 k-point 15 :   0.2000 0.0000 0.2000  plane waves:    1073
 k-point 16 :   0.4000 0.0000 0.2000  plane waves:    1072
 k-point 17 :  -0.4000 0.0000 0.2000  plane waves:    1072
 k-point 18 :  -0.2000 0.0000 0.2000  plane waves:    1073
 k-point 19 :   0.0000 0.2000 0.2000  plane waves:    1073
 k-point 20 :   0.2000 0.2000 0.2000  plane waves:    1066
 k-point 21 :   0.4000 0.2000 0.2000  plane waves:    1068
 k-point 22 :  -0.4000 0.2000 0.2000  plane waves:    1068
 k-point 23 :  -0.2000 0.2000 0.2000  plane waves:    1066
 k-point 24 :   0.0000 0.4000 0.2000  plane waves:    1072
 k-point 25 :   0.2000 0.4000 0.2000  plane waves:    1068
 k-point 26 :   0.4000 0.4000 0.2000  plane waves:    1054
 k-point 27 :  -0.4000 0.4000 0.2000  plane waves:    1054
 k-point 28 :  -0.2000 0.4000 0.2000  plane waves:    1068
 k-point 29 :   0.0000-0.4000 0.2000  plane waves:    1072
 k-point 30 :   0.2000-0.4000 0.2000  plane waves:    1068
 k-point 31 :   0.4000-0.4000 0.2000  plane waves:    1054
 k-point 32 :  -0.4000-0.4000 0.2000  plane waves:    1054
 k-point 33 :  -0.2000-0.4000 0.2000  plane waves:    1068
 k-point 34 :   0.0000-0.2000 0.2000  plane waves:    1073
 k-point 35 :   0.2000-0.2000 0.2000  plane waves:    1066
 k-point 36 :   0.4000-0.2000 0.2000  plane waves:    1068
 k-point 37 :  -0.4000-0.2000 0.2000  plane waves:    1068
 k-point 38 :  -0.2000-0.2000 0.2000  plane waves:    1066
 k-point 39 :   0.0000 0.0000 0.4000  plane waves:    1064
 k-point 40 :   0.2000 0.0000 0.4000  plane waves:    1072
 k-point 41 :   0.4000 0.0000 0.4000  plane waves:    1063
 k-point 42 :  -0.4000 0.0000 0.4000  plane waves:    1063
 k-point 43 :  -0.2000 0.0000 0.4000  plane waves:    1072
 k-point 44 :   0.0000 0.2000 0.4000  plane waves:    1072
 k-point 45 :   0.2000 0.2000 0.4000  plane waves:    1068
 k-point 46 :   0.4000 0.2000 0.4000  plane waves:    1054
 k-point 47 :  -0.4000 0.2000 0.4000  plane waves:    1054
 k-point 48 :  -0.2000 0.2000 0.4000  plane waves:    1068
 k-point 49 :   0.0000 0.4000 0.4000  plane waves:    1063
 k-point 50 :   0.2000 0.4000 0.4000  plane waves:    1054
 k-point 51 :   0.4000 0.4000 0.4000  plane waves:    1058
 k-point 52 :  -0.4000 0.4000 0.4000  plane waves:    1058
 k-point 53 :  -0.2000 0.4000 0.4000  plane waves:    1054
 k-point 54 :   0.0000-0.4000 0.4000  plane waves:    1063
 k-point 55 :   0.2000-0.4000 0.4000  plane waves:    1054
 k-point 56 :   0.4000-0.4000 0.4000  plane waves:    1058
 k-point 57 :  -0.4000-0.4000 0.4000  plane waves:    1058
 k-point 58 :  -0.2000-0.4000 0.4000  plane waves:    1054
 k-point 59 :   0.0000-0.2000 0.4000  plane waves:    1072
 k-point 60 :   0.2000-0.2000 0.4000  plane waves:    1068
 k-point 61 :   0.4000-0.2000 0.4000  plane waves:    1054
 k-point 62 :  -0.4000-0.2000 0.4000  plane waves:    1054
 k-point 63 :  -0.2000-0.2000 0.4000  plane waves:    1068

 maximum and minimum number of plane-waves per node :      1073     1045

 maximum number of plane-waves:      1073
 maximum index in each direction: 
   IXMAX=    6   IYMAX=    6   IZMAX=    6
   IXMIN=   -6   IYMIN=   -6   IZMIN=   -6

 WARNING: aliasing errors must be expected set NGX to  26 to avoid them
 WARNING: aliasing errors must be expected set NGY to  26 to avoid them
 WARNING: aliasing errors must be expected set NGZ to  26 to avoid them
 aliasing errors are usually negligible using standard VASP settings
 and one can safely disregard these warnings

 serial   3D FFT for wavefunctions
 parallel 3D FFT for charge:
    minimum data exchange during FFTs selected (reduces bandwidth)


 total amount of memory used by VASP on root node    61338. kBytes
========================================================================

   base      :      30000. kBytes
   nonl-proj :      29425. kBytes
   fftplans  :        145. kBytes
   grid      :        538. kBytes
   one-center:         77. kBytes
   wavefun   :       1153. kBytes
 
     INWAV:  cpu time    0.00: real time    0.00
 Broyden mixing: mesh for mixing (old mesh)
   NGX = 13   NGY = 13   NGZ = 13
  (NGX  = 40   NGY  = 40   NGZ  = 40)
  gives a total of   2197 points

 initial charge density was supplied:
 charge density of overlapping atoms calculated
 number of electron      36.0000000 magnetization 
 keeping initial charge density in first step


--------------------------------------------------------------------------------------------------------


 Maximum index for augmentation-charges          528 (set IRDMAX)


--------------------------------------------------------------------------------------------------------


 First call to EWALD:  gamma=   0.457
 Maximum number of real-space cells 3x 3x 3
 Maximum number of reciprocal cells 3x 3x 3

 FEWALD executed in parallel
    FEWALD:  cpu time    0.00: real time    0.00


----------------------------------------- Iteration    1(   1)  ---------------------------------------


    POTLOK:  cpu time    0.00: real time    0.00
    SETDIJ:  cpu time    0.00: real time    0.00
     EDDAV:  cpu time    0.40: real time    0.40
       DOS:  cpu time    0.00: real time    0.00
    --------------------------------------------
      LOOP:  cpu time    0.41: real time    0.41

 eigenvalue-minimisations  :  2772
 total energy-change (2. order) : 0.2166131E+03  (-0.1657819E+04)
 number of electron      36.0000000 magnetization 
 augmentation part       36.0000000 magnetization 

 Free energy of the ion-electron system (eV)
  ---------------------------------------------------
  alpha Z        PSCENC =       166.69949767
  Ewald energy   TEWEN  =     -2275.33586813
  -Hartree energ DENC   =      -674.50809473
  -exchange      EXHF   =         0.00000000
  -V(xc)+E(xc)   XCENC  =       135.80392173
  PAW double counting   =      2297.08385515    -2300.16057493
  entropy T*S    EENTRO =         0.00166579
  eigenvalues    EBANDS =       -85.02406350
  atomic energy  EATOM  =      2952.05274943
  ---------------------------------------------------
  free energy    TOTEN  =       216.61308848 eV

  energy without entropy =      216.61142269  energy(sigma->0) =      216.61253322


--------------------------------------------------------------------------------------------------------




----------------------------------------- Iteration    1(   2)  ---------------------------------------


     EDDAV:  cpu time    0.84: real time    0.84
       DOS:  cpu time    0.00: real time    0.00
    --------------------------------------------
      LOOP:  cpu time    0.84: real time    0.84

 eigenvalue-minimisations  :  5060
 total energy-change (2. order) :-0.2573766E+03  (-0.2546473E+03)
 number of electron      36.0000000 magnetization 
 augmentation part       36.0000000 magnetization 

 Free energy of the ion-electron system (eV)
  ---------------------------------------------------
  alpha Z        PSCENC =       166.69949767
  Ewald energy   TEWEN  =     -2275.33586813
  -Hartree energ DENC   =      -674.50809473
  -exchange      EXHF   =         0.00000000
  -V(xc)+E(xc)   XCENC  =       135.80392173
  PAW double counting   =      2297.08385515    -2300.16057493
  entropy T*S    EENTRO =        -0.00018978
  eigenvalues    EBANDS =      -342.39884046
  atomic energy  EATOM  =      2952.05274943
  ---------------------------------------------------
  free energy    TOTEN  =       -40.76354405 eV

  energy without entropy =      -40.76335427  energy(sigma->0) =      -40.76348079


--------------------------------------------------------------------------------------------------------




----------------------------------------- Iteration    1(   3)  ---------------------------------------


     EDDAV:  cpu time    0.42: real time    0.42
       DOS:  cpu time    0.00: real time    0.00
    --------------------------------------------
      LOOP:  cpu time    0.42: real time    0.42

 eigenvalue-minimisations  :  3014
 total energy-change (2. order) :-0.9034224E+01  (-0.8631034E+01)
 number of electron      36.0000000 magnetization 
 augmentation part       36.0000000 magnetization 

 Free energy of the ion-electron system (eV)
  ---------------------------------------------------
  alpha Z        PSCENC =       166.69949767
  Ewald energy   TEWEN  =     -2275.33586813
  -Hartree energ DENC   =      -674.50809473
  -exchange      EXHF   =         0.00000000
  -V(xc)+E(xc)   XCENC  =       135.80392173
  PAW double counting   =      2297.08385515    -2300.16057493
  entropy T*S    EENTRO =         0.01020225
  eigenvalues    EBANDS =      -351.44345683
  atomic energy  EATOM  =      2952.05274943
  ---------------------------------------------------
  free energy    TOTEN  =       -49.79776839 eV

  energy without entropy =      -49.80797064  energy(sigma->0) =      -49.80116914


--------------------------------------------------------------------------------------------------------




----------------------------------------- Iteration    1(   4)  ---------------------------------------


     EDDAV:  cpu time    0.88: real time    0.88
       DOS:  cpu time    0.00: real time    0.00
    --------------------------------------------
      LOOP:  cpu time    0.88: real time    0.88

 eigenvalue-minimisations  :  5170
 total energy-change (2. order) :-0.1181268E+00  (-0.1165054E+00)
 number of electron      36.0000000 magnetization 
 augmentation part       36.0000000 magnetization 

 Free energy of the ion-electron system (eV)
  ---------------------------------------------------
  alpha Z        PSCENC =       166.69949767
  Ewald energy   TEWEN  =     -2275.33586813
  -Hartree energ DENC   =      -674.50809473
  -exchange      EXHF   =         0.00000000
  -V(xc)+E(xc)   XCENC  =       135.80392173
  PAW double counting   =      2297.08385515    -2300.16057493
  entropy T*S    EENTRO =         0.00790080
  eigenvalues    EBANDS =      -351.55928219
  atomic energy  EATOM  =      2952.05274943
  ---------------------------------------------------
  free energy    TOTEN  =       -49.91589520 eV

  energy without entropy =      -49.92379600  energy(sigma->0) =      -49.91852880


--------------------------------------------------------------------------------------------------------




----------------------------------------- Iteration    1(   5)  ---------------------------------------


     EDDAV:  cpu time    0.42: real time    0.42
       DOS:  cpu time    0.00: real time    0.00
    CHARGE:  cpu time    0.01: real time    0.01
    MIXING:  cpu time    0.00: real time    0.00
    --------------------------------------------
      LOOP:  cpu time    0.44: real time    0.44

 eigenvalue-minimisations  :  3146
 total energy-change (2. order) :-0.9853407E-03  (-0.9852583E-03)
 number of electron      36.0000018 magnetization 
 augmentation part       10.9369392 magnetization 

 Broyden mixing:
  rms(total) = 0.30931E+01    rms(broyden)= 0.30928E+01
  rms(prec ) = 0.53668E+01
  weight for this iteration     100.00

 Free energy of the ion-electron system (eV)
  ---------------------------------------------------
  alpha Z        PSCENC =       166.69949767
  Ewald energy   TEWEN  =     -2275.33586813
  -Hartree energ DENC   =      -674.50809473
  -exchange      EXHF   =         0.00000000
  -V(xc)+E(xc)   XCENC  =       135.80392173
  PAW double counting   =      2297.08385515    -2300.16057493
  entropy T*S    EENTRO =         0.00789286
  eigenvalues    EBANDS =      -351.56025959
  atomic energy  EATOM  =      2952.05274943
  ---------------------------------------------------
  free energy    TOTEN  =       -49.91688054 eV

  energy without entropy =      -49.92477340  energy(sigma->0) =      -49.91951150


--------------------------------------------------------------------------------------------------------




----------------------------------------- Iteration    1(   6)  ---------------------------------------


    POTLOK:  cpu time    0.00: real time    0.00
    SETDIJ:  cpu time    0.00: real time    0.00
     EDDAV:  cpu time    0.85: real time    0.85
       DOS:  cpu time    0.00: real time    0.00
    CHARGE:  cpu time    0.01: real time    0.01
    MIXING:  cpu time    0.00: real time    0.00
    --------------------------------------------
      LOOP:  cpu time    0.87: real time    0.87

 eigenvalue-minimisations  :  5258
 total energy-change (2. order) : 0.9313018E+01  (-0.8085458E+01)
 number of electron      35.9999979 magnetization 
 augmentation part       11.1285430 magnetization 

 Broyden mixing:
  rms(total) = 0.10167E+01    rms(broyden)= 0.10160E+01
  rms(prec ) = 0.15794E+01
  weight for this iteration     100.00

 eigenvalues of (default mixing * dielectric matrix)
  average eigenvalue GAMMA=   0.9853
  0.9853

 Free energy of the ion-electron system (eV)
  ---------------------------------------------------
  alpha Z        PSCENC =       166.69949767
  Ewald energy   TEWEN  =     -2275.33586813
  -Hartree energ DENC   =      -694.85195807
  -exchange      EXHF   =         0.00000000
  -V(xc)+E(xc)   XCENC  =       138.32459090
  PAW double counting   =      2776.94453590    -2782.77418678
  entropy T*S    EENTRO =         0.00705832
  eigenvalues    EBANDS =      -321.67028204
  atomic energy  EATOM  =      2952.05274943
  ---------------------------------------------------
  free energy    TOTEN  =       -40.60386280 eV

  energy without entropy =      -40.61092112  energy(sigma->0) =      -40.60621558


--------------------------------------------------------------------------------------------------------




----------------------------------------- Iteration    1(   7)  ---------------------------------------


    POTLOK:  cpu time    0.00: real time    0.00
    SETDIJ:  cpu time    0.00: real time    0.00
     EDDAV:  cpu time    0.49: real time    0.49
       DOS:  cpu time    0.00: real time    0.00
    CHARGE:  cpu time    0.01: real time    0.01
    MIXING:  cpu time    0.00: real time    0.00
    --------------------------------------------
      LOOP:  cpu time    0.50: real time    0.50

 eigenvalue-minimisations  :  3564
 total energy-change (2. order) : 0.4408096E+00  (-0.6771546E+00)
 number of electron      35.9999988 magnetization 
 augmentation part       11.0306331 magnetization 

 Broyden mixing:
  rms(total) = 0.79213E+00    rms(broyden)= 0.79211E+00
  rms(prec ) = 0.99969E+00
  weight for this iteration     100.00

 eigenvalues of (default mixing * dielectric matrix)
  average eigenvalue GAMMA=   1.7470
  0.7435  2.7504

 Free energy of the ion-electron system (eV)
  ---------------------------------------------------
  alpha Z        PSCENC =       166.69949767
  Ewald energy   TEWEN  =     -2275.33586813
  -Hartree energ DENC   =      -686.31800407
  -exchange      EXHF   =         0.00000000
  -V(xc)+E(xc)   XCENC  =       137.55417702
  PAW double counting   =      3005.40000181    -3011.15808461
  entropy T*S    EENTRO =         0.00680827
  eigenvalues    EBANDS =      -329.06433063
  atomic energy  EATOM  =      2952.05274943
  ---------------------------------------------------
  free energy    TOTEN  =       -40.16305324 eV

  energy without entropy =      -40.16986151  energy(sigma->0) =      -40.16532266


--------------------------------------------------------------------------------------------------------




----------------------------------------- Iteration    1(   8)  ---------------------------------------


    POTLOK:  cpu time    0.00: real time    0.00
    SETDIJ:  cpu time    0.00: real time    0.00
     EDDAV:  cpu time    0.68: real time    0.68
       DOS:  cpu time    0.00: real time    0.00
    CHARGE:  cpu time    0.01: real time    0.01
    MIXING:  cpu time    0.00: real time    0.00
    --------------------------------------------
      LOOP:  cpu time    0.70: real time    0.70

 eigenvalue-minimisations  :  4598
 total energy-change (2. order) :-0.1331349E+00  (-0.4639508E+00)
 number of electron      35.9999980 magnetization 
 augmentation part       11.2602730 magnetization 

 Broyden mixing:
  rms(total) = 0.58173E+00    rms(broyden)= 0.58168E+00
  rms(prec ) = 0.10630E+01
  weight for this iteration     100.00

 eigenvalues of (default mixing * dielectric matrix)
  average eigenvalue GAMMA=   1.2008
  2.3414  0.8112  0.4497

 Free energy of the ion-electron system (eV)
  ---------------------------------------------------
  alpha Z        PSCENC =       166.69949767
  Ewald energy   TEWEN  =     -2275.33586813
  -Hartree energ DENC   =      -679.98814872
  -exchange      EXHF   =         0.00000000
  -V(xc)+E(xc)   XCENC  =       137.47621821
  PAW double counting   =      3605.46506748    -3612.42339424
  entropy T*S    EENTRO =         0.00686516
  eigenvalues    EBANDS =      -334.24917500
  atomic energy  EATOM  =      2952.05274943
  ---------------------------------------------------
  free energy    TOTEN  =       -40.29618814 eV

  energy without entropy =      -40.30305330  energy(sigma->0) =      -40.29847653


--------------------------------------------------------------------------------------------------------




----------------------------------------- Iteration    1(   9)  ---------------------------------------


    POTLOK:  cpu time    0.00: real time    0.00
    SETDIJ:  cpu time    0.00: real time    0.00
     EDDAV:  cpu time    0.61: real time    0.61
       DOS:  cpu time    0.00: real time    0.00
    CHARGE:  cpu time    0.01: real time    0.01
    MIXING:  cpu time    0.00: real time    0.00
    --------------------------------------------
      LOOP:  cpu time    0.63: real time    0.63

 eigenvalue-minimisations  :  4268
 total energy-change (2. order) : 0.2166482E+00  (-0.9964890E-01)
 number of electron      35.9999983 magnetization 
 augmentation part       11.1586294 magnetization 

 Broyden mixing:
  rms(total) = 0.18214E+00    rms(broyden)= 0.18212E+00
  rms(prec ) = 0.32160E+00
  weight for this iteration     100.00

 eigenvalues of (default mixing * dielectric matrix)
  average eigenvalue GAMMA=   1.4352
  2.1771  2.1771  0.8440  0.5425

 Free energy of the ion-electron system (eV)
  ---------------------------------------------------
  alpha Z        PSCENC =       166.69949767
  Ewald energy   TEWEN  =     -2275.33586813
  -Hartree energ DENC   =      -682.59547529
  -exchange      EXHF   =         0.00000000
  -V(xc)+E(xc)   XCENC  =       137.51966436
  PAW double counting   =      3518.40692424    -3525.10892725
  entropy T*S    EENTRO =         0.00685950
  eigenvalues    EBANDS =      -331.72496448
  atomic energy  EATOM  =      2952.05274943
  ---------------------------------------------------
  free energy    TOTEN  =       -40.07953994 eV

  energy without entropy =      -40.08639945  energy(sigma->0) =      -40.08182644


--------------------------------------------------------------------------------------------------------




----------------------------------------- Iteration    1(  10)  ---------------------------------------


    POTLOK:  cpu time    0.00: real time    0.00
    SETDIJ:  cpu time    0.00: real time    0.00
     EDDAV:  cpu time    0.78: real time    0.78
       DOS:  cpu time    0.00: real time    0.00
    CHARGE:  cpu time    0.01: real time    0.01
    MIXING:  cpu time    0.00: real time    0.00
    --------------------------------------------
      LOOP:  cpu time    0.80: real time    0.80

 eigenvalue-minimisations  :  4972
 total energy-change (2. order) : 0.2214228E-01  (-0.2843870E-01)
 number of electron      35.9999985 magnetization 
 augmentation part       11.1055241 magnetization 

 Broyden mixing:
  rms(total) = 0.47675E-01    rms(broyden)= 0.47615E-01
  rms(prec ) = 0.74470E-01
  weight for this iteration     100.00

 eigenvalues of (default mixing * dielectric matrix)
  average eigenvalue GAMMA=   1.3531
  2.5669  1.6458  1.1242  0.8714  0.5570

 Free energy of the ion-electron system (eV)
  ---------------------------------------------------
  alpha Z        PSCENC =       166.69949767
  Ewald energy   TEWEN  =     -2275.33586813
  -Hartree energ DENC   =      -685.67465850
  -exchange      EXHF   =         0.00000000
  -V(xc)+E(xc)   XCENC  =       137.64445172
  PAW double counting   =      3486.00089539    -3492.57923744
  entropy T*S    EENTRO =         0.00690916
  eigenvalues    EBANDS =      -328.87213697
  atomic energy  EATOM  =      2952.05274943
  ---------------------------------------------------
  free energy    TOTEN  =       -40.05739766 eV

  energy without entropy =      -40.06430682  energy(sigma->0) =      -40.05970071


--------------------------------------------------------------------------------------------------------




----------------------------------------- Iteration    1(  11)  ---------------------------------------


    POTLOK:  cpu time    0.00: real time    0.00
    SETDIJ:  cpu time    0.00: real time    0.00
     EDDAV:  cpu time    0.56: real time    0.56
       DOS:  cpu time    0.00: real time    0.00
    CHARGE:  cpu time    0.01: real time    0.01
    MIXING:  cpu time    0.00: real time    0.00
    --------------------------------------------
      LOOP:  cpu time    0.58: real time    0.58

 eigenvalue-minimisations  :  3850
 total energy-change (2. order) : 0.6122012E-03  (-0.9688383E-03)
 number of electron      35.9999985 magnetization 
 augmentation part       11.1146579 magnetization 

 Broyden mixing:
  rms(total) = 0.66427E-02    rms(broyden)= 0.66390E-02
  rms(prec ) = 0.84055E-02
  weight for this iteration     100.00

 eigenvalues of (default mixing * dielectric matrix)
  average eigenvalue GAMMA=   1.4892
  2.5143  2.5143  1.5202  0.9586  0.8712  0.5564

 Free energy of the ion-electron system (eV)
  ---------------------------------------------------
  alpha Z        PSCENC =       166.69949767
  Ewald energy   TEWEN  =     -2275.33586813
  -Hartree energ DENC   =      -685.46157481
  -exchange      EXHF   =         0.00000000
  -V(xc)+E(xc)   XCENC  =       137.64506993
  PAW double counting   =      3507.80424483    -3514.41740549
  entropy T*S    EENTRO =         0.00690934
  eigenvalues    EBANDS =      -329.05040824
  atomic energy  EATOM  =      2952.05274943
  ---------------------------------------------------
  free energy    TOTEN  =       -40.05678546 eV

  energy without entropy =      -40.06369480  energy(sigma->0) =      -40.05908857


--------------------------------------------------------------------------------------------------------




----------------------------------------- Iteration    1(  12)  ---------------------------------------


    POTLOK:  cpu time    0.00: real time    0.00
    SETDIJ:  cpu time    0.00: real time    0.00
     EDDAV:  cpu time    0.58: real time    0.58
       DOS:  cpu time    0.00: real time    0.00
    --------------------------------------------
      LOOP:  cpu time    0.59: real time    0.59

 eigenvalue-minimisations  :  3960
 total energy-change (2. order) :-0.4657524E-04  (-0.2751109E-04)
 number of electron      35.9999985 magnetization 
 augmentation part       11.1146579 magnetization 

 Free energy of the ion-electron system (eV)
  ---------------------------------------------------
  alpha Z        PSCENC =       166.69949767
  Ewald energy   TEWEN  =     -2275.33586813
  -Hartree energ DENC   =      -685.55496750
  -exchange      EXHF   =         0.00000000
  -V(xc)+E(xc)   XCENC  =       137.65096349
  PAW double counting   =      3502.38392130    -3508.98416786
  entropy T*S    EENTRO =         0.00690942
  eigenvalues    EBANDS =      -328.97586985
  atomic energy  EATOM  =      2952.05274943
  ---------------------------------------------------
  free energy    TOTEN  =       -40.05683204 eV

  energy without entropy =      -40.06374146  energy(sigma->0) =      -40.05913518


--------------------------------------------------------------------------------------------------------




 average (electrostatic) potential at core
  the test charge radii are     1.0397  1.2658  0.7215
  (the norm of the test charge is              1.0000)
       1 -53.1507       2 -45.5884       3 -70.0955       4 -70.0930       5 -70.0889
 
 
 
 E-fermi :   3.6839     XC(G=0): -11.0066     alpha+bet :-13.2781


 k-point     1 :       0.0000    0.0000    0.0000
  band No.  band energies     occupation 
      1     -29.0422      2.00000
      2     -29.0412      2.00000
      3     -29.0393      2.00000
      4     -16.5712      2.00000
      5     -16.5635      2.00000
      6     -16.5617      2.00000
      7     -13.8722      2.00000
      8     -12.7861      2.00000
      9     -12.7743      2.00000
     10       0.6398      2.00000
     11       0.6442      2.00000
     12       0.6493      2.00000
     13       2.5405      2.00000
     14       2.5517      2.00000
     15       2.5718      2.00000
     16       3.2823      2.01559
     17       3.2830      2.01576
     18       3.2879      2.01706
     19       5.5573     -0.00000
     20       5.5767     -0.00000
     21       5.5777     -0.00000
     22       8.0485     -0.00000

 k-point     2 :       0.2000    0.0000    0.0000
  band No.  band energies     occupation 
      1     -29.0683      2.00000
      2     -29.0404      2.00000
      3     -29.0382      2.00000
      4     -16.6499      2.00000
      5     -16.5651      2.00000
      6     -16.5590      2.00000
      7     -13.6515      2.00000
      8     -12.7678      2.00000
      9     -12.6782      2.00000
     10       0.2185      2.00000
     11       0.6643      2.00000
     12       0.6740      2.00000
     13       2.0651      2.00000
     14       2.0786      2.00000
     15       2.2255      2.00000
     16       2.2673      2.00000
     17       3.1283      2.00061
     18       3.1325      2.00068
     19       5.6293     -0.00000
     20       6.3343     -0.00000
     21       6.3517     -0.00000
     22       8.0712     -0.00000

 k-point     3 :       0.4000    0.0000    0.0000
  band No.  band energies     occupation 
      1     -29.1105      2.00000
      2     -29.0386      2.00000
      3     -29.0365      2.00000
      4     -16.7776      2.00000
      5     -16.5585      2.00000
      6     -16.5519      2.00000
      7     -13.2952      2.00000
      8     -12.7490      2.00000
      9     -12.4902      2.00000
     10      -0.5616      2.00000
     11       0.8170      2.00000
     12       0.8242      2.00000
     13       1.1474      2.00000
     14       1.3259      2.00000
     15       1.3332      2.00000
     16       1.8854      2.00000
     17       3.0160      2.00002
     18       3.0272      2.00004
     19       5.7245     -0.00000
     20       7.3518     -0.00000
     21       7.3652     -0.00000
     22       8.0826     -0.00000

 k-point     4 :       0.0000    0.2000    0.0000
  band No.  band energies     occupation 
      1     -29.0675      2.00000
      2     -29.0409      2.00000
      3     -29.0385      2.00000
      4     -16.6519      2.00000
      5     -16.5640      2.00000
      6     -16.5580      2.00000
      7     -13.6520      2.00000
      8     -12.7712      2.00000
      9     -12.6745      2.00000
     10       0.2193      2.00000
     11       0.6668      2.00000
     12       0.6717      2.00000
     13       2.0696      2.00000
     14       2.0767      2.00000
     15       2.2254      2.00000
     16       2.2652      2.00000
     17       3.1264      2.00058
     18       3.1289      2.00062
     19       5.6257     -0.00000
     20       6.3400     -0.00000
     21       6.3508     -0.00000
     22       8.0702     -0.00000

 k-point     5 :       0.2000    0.2000    0.0000
  band No.  band energies     occupation 
      1     -29.0674      2.00000
      2     -29.0664      2.00000
      3     -29.0376      2.00000
      4     -16.6569      2.00000
      5     -16.6098      2.00000
      6     -16.5585      2.00000
      7     -13.4650      2.00000
      8     -12.7109      2.00000
      9     -12.6202      2.00000
     10       0.0023      2.00000
     11       0.4130      2.00000
     12       0.6874      2.00000
     13       1.1441      2.00000
     14       1.7983      2.00000
     15       2.1862      2.00000
     16       2.3512      2.00000
     17       2.8013      2.00000
     18       2.8084      2.00000
     19       6.2992     -0.00000
     20       6.4498     -0.00000
     21       6.6597     -0.00000
     22       8.5465     -0.00000

 k-point     6 :       0.4000    0.2000    0.0000
  band No.  band energies     occupation 
      1     -29.1096      2.00000
      2     -29.0649      2.00000
      3     -29.0359      2.00000
      4     -16.7450      2.00000
      5     -16.6061      2.00000
      6     -16.5508      2.00000
      7     -13.1866      2.00000
      8     -12.6608      2.00000
      9     -12.4387      2.00000
     10      -0.5876      2.00000
     11      -0.0698      2.00000
     12       0.5105      2.00000
     13       0.8190      2.00000
     14       1.2262      2.00000
     15       1.6128      2.00000
     16       2.2973      2.00000
     17       2.5826      2.00000
     18       2.8027      2.00000
     19       6.4270     -0.00000
     20       7.3641     -0.00000
     21       7.4062     -0.00000
     22       8.6869     -0.00000

 k-point     7 :      -0.4000    0.2000    0.0000
  band No.  band energies     occupation 
      1     -29.1096      2.00000
      2     -29.0649      2.00000
      3     -29.0359      2.00000
      4     -16.7447      2.00000
      5     -16.6062      2.00000
      6     -16.5508      2.00000
      7     -13.1867      2.00000
      8     -12.6608      2.00000
      9     -12.4389      2.00000
     10      -0.5870      2.00000
     11      -0.0698      2.00000
     12       0.5103      2.00000
     13       0.8177      2.00000
     14       1.2277      2.00000
     15       1.6144      2.00000
     16       2.2978      2.00000
     17       2.5825      2.00000
     18       2.8013      2.00000
     19       6.4268     -0.00000
     20       7.3636     -0.00000
     21       7.4073     -0.00000
     22       8.6869     -0.00000

 k-point     8 :      -0.2000    0.2000    0.0000
  band No.  band energies     occupation 
      1     -29.0674      2.00000
      2     -29.0664      2.00000
      3     -29.0376      2.00000
      4     -16.6559      2.00000
      5     -16.6106      2.00000
      6     -16.5585      2.00000
      7     -13.4651      2.00000
      8     -12.7109      2.00000
      9     -12.6206      2.00000
     10       0.0026      2.00000
     11       0.4143      2.00000
     12       0.6865      2.00000
     13       1.1449      2.00000
     14       1.7996      2.00000
     15       2.1883      2.00000
     16       2.3520      2.00000
     17       2.7976      2.00000
     18       2.8083      2.00000
     19       6.2999     -0.00000
     20       6.4481     -0.00000
     21       6.6621     -0.00000
     22       8.5465     -0.00000

 k-point     9 :       0.0000    0.4000    0.0000
  band No.  band energies     occupation 
      1     -29.1096      2.00000
      2     -29.0391      2.00000
      3     -29.0368      2.00000
      4     -16.7787      2.00000
      5     -16.5569      2.00000
      6     -16.5518      2.00000
      7     -13.2969      2.00000
      8     -12.7515      2.00000
      9     -12.4865      2.00000
     10      -0.5587      2.00000
     11       0.8165      2.00000
     12       0.8213      2.00000
     13       1.1471      2.00000
     14       1.3309      2.00000
     15       1.3352      2.00000
     16       1.8784      2.00000
     17       3.0150      2.00002
     18       3.0206      2.00003
     19       5.7220     -0.00000
     20       7.3567     -0.00000
     21       7.3639     -0.00000
     22       8.0819     -0.00000

 k-point    10 :       0.2000    0.4000    0.0000
  band No.  band energies     occupation 
      1     -29.1088      2.00000
      2     -29.0657      2.00000
      3     -29.0359      2.00000
      4     -16.7459      2.00000
      5     -16.6047      2.00000
      6     -16.5509      2.00000
      7     -13.1874      2.00000
      8     -12.6636      2.00000
      9     -12.4353      2.00000
     10      -0.5848      2.00000
     11      -0.0686      2.00000
     12       0.5055      2.00000
     13       0.8180      2.00000
     14       1.2291      2.00000
     15       1.6148      2.00000
     16       2.2938      2.00000
     17       2.5802      2.00000
     18       2.8007      2.00000
     19       6.4241     -0.00000
     20       7.3670     -0.00000
     21       7.4071     -0.00000
     22       8.6866     -0.00000

 k-point    11 :       0.4000    0.4000    0.0000
  band No.  band energies     occupation 
      1     -29.1084      2.00000
      2     -29.1074      2.00000
      3     -29.0342      2.00000
      4     -16.6985      2.00000
      5     -16.6804      2.00000
      6     -16.5433      2.00000
      7     -13.1148      2.00000
      8     -12.3973      2.00000
      9     -12.3411      2.00000
     10      -0.9114      2.00000
     11      -0.6258      2.00000
     12      -0.4122      2.00000
     13       0.8458      2.00000
     14       0.9993      2.00000
     15       1.7729      2.00000
     16       1.8520      2.00000
     17       2.1288      2.00000
     18       3.4633      2.06555
     19       7.3519     -0.00000
     20       7.3970     -0.00000
     21       7.7554     -0.00000
     22       9.0040     -0.00000

 k-point    12 :      -0.4000    0.4000    0.0000
  band No.  band energies     occupation 
      1     -29.1084      2.00000
      2     -29.1074      2.00000
      3     -29.0342      2.00000
      4     -16.6976      2.00000
      5     -16.6812      2.00000
      6     -16.5433      2.00000
      7     -13.1149      2.00000
      8     -12.3968      2.00000
      9     -12.3416      2.00000
     10      -0.9101      2.00000
     11      -0.6273      2.00000
     12      -0.4120      2.00000
     13       0.8432      2.00000
     14       1.0022      2.00000
     15       1.7732      2.00000
     16       1.8531      2.00000
     17       2.1286      2.00000
     18       3.4626      2.06585
     19       7.3516     -0.00000
     20       7.3969     -0.00000
     21       7.7558     -0.00000
     22       9.0041     -0.00000

 k-point    13 :      -0.2000    0.4000    0.0000
  band No.  band energies     occupation 
      1     -29.1088      2.00000
      2     -29.0657      2.00000
      3     -29.0359      2.00000
      4     -16.7457      2.00000
      5     -16.6049      2.00000
      6     -16.5509      2.00000
      7     -13.1876      2.00000
      8     -12.6636      2.00000
      9     -12.4355      2.00000
     10      -0.5841      2.00000
     11      -0.0686      2.00000
     12       0.5052      2.00000
     13       0.8167      2.00000
     14       1.2307      2.00000
     15       1.6163      2.00000
     16       2.2943      2.00000
     17       2.5801      2.00000
     18       2.7994      2.00000
     19       6.4240     -0.00000
     20       7.3665     -0.00000
     21       7.4082     -0.00000
     22       8.6865     -0.00000

 k-point    14 :       0.0000    0.0000    0.2000
  band No.  band energies     occupation 
      1     -29.0661      2.00000
      2     -29.0409      2.00000
      3     -29.0399      2.00000
      4     -16.6548      2.00000
      5     -16.5605      2.00000
      6     -16.5580      2.00000
      7     -13.6529      2.00000
      8     -12.7765      2.00000
      9     -12.6687      2.00000
     10       0.2206      2.00000
     11       0.6678      2.00000
     12       0.6711      2.00000
     13       2.0737      2.00000
     14       2.0778      2.00000
     15       2.2270      2.00000
     16       2.2592      2.00000
     17       3.1223      2.00053
     18       3.1239      2.00055
     19       5.6197     -0.00000
     20       6.3463     -0.00000
     21       6.3524     -0.00000
     22       8.0687     -0.00000

 k-point    15 :       0.2000    0.0000    0.2000
  band No.  band energies     occupation 
      1     -29.0673      2.00000
      2     -29.0650      2.00000
      3     -29.0389      2.00000
      4     -16.6588      2.00000
      5     -16.6102      2.00000
      6     -16.5558      2.00000
      7     -13.4661      2.00000
      8     -12.7151      2.00000
      9     -12.6153      2.00000
     10       0.0051      2.00000
     11       0.4127      2.00000
     12       0.6878      2.00000
     13       1.1444      2.00000
     14       1.7957      2.00000
     15       2.1790      2.00000
     16       2.3460      2.00000
     17       2.8048      2.00000
     18       2.8125      2.00000
     19       6.2962     -0.00000
     20       6.4503     -0.00000
     21       6.6626     -0.00000
     22       8.5454     -0.00000

 k-point    16 :       0.4000    0.0000    0.2000
  band No.  band energies     occupation 
      1     -29.1096      2.00000
      2     -29.0635      2.00000
      3     -29.0372      2.00000
      4     -16.7452      2.00000
      5     -16.6075      2.00000
      6     -16.5489      2.00000
      7     -13.1887      2.00000
      8     -12.6591      2.00000
      9     -12.4386      2.00000
     10      -0.5870      2.00000
     11      -0.0672      2.00000
     12       0.5172      2.00000
     13       0.8150      2.00000
     14       1.2203      2.00000
     15       1.6030      2.00000
     16       2.2948      2.00000
     17       2.5808      2.00000
     18       2.8155      2.00000
     19       6.4281     -0.00000
     20       7.3620     -0.00000
     21       7.4079     -0.00000
     22       8.6864     -0.00000

 k-point    17 :      -0.4000    0.0000    0.2000
  band No.  band energies     occupation 
      1     -29.1096      2.00000
      2     -29.0635      2.00000
      3     -29.0372      2.00000
      4     -16.7449      2.00000
      5     -16.6077      2.00000
      6     -16.5489      2.00000
      7     -13.1889      2.00000
      8     -12.6590      2.00000
      9     -12.4389      2.00000
     10      -0.5860      2.00000
     11      -0.0672      2.00000
     12       0.5168      2.00000
     13       0.8131      2.00000
     14       1.2226      2.00000
     15       1.6053      2.00000
     16       2.2957      2.00000
     17       2.5806      2.00000
     18       2.8135      2.00000
     19       6.4278     -0.00000
     20       7.3614     -0.00000
     21       7.4094     -0.00000
     22       8.6864     -0.00000

 k-point    18 :      -0.2000    0.0000    0.2000
  band No.  band energies     occupation 
      1     -29.0674      2.00000
      2     -29.0650      2.00000
      3     -29.0389      2.00000
      4     -16.6574      2.00000
      5     -16.6113      2.00000
      6     -16.5558      2.00000
      7     -13.4662      2.00000
      8     -12.7151      2.00000
      9     -12.6158      2.00000
     10       0.0056      2.00000
     11       0.4147      2.00000
     12       0.6865      2.00000
     13       1.1455      2.00000
     14       1.7975      2.00000
     15       2.1820      2.00000
     16       2.3472      2.00000
     17       2.8044      2.00000
     18       2.8073      2.00000
     19       6.2972     -0.00000
     20       6.4480     -0.00000
     21       6.6660     -0.00000
     22       8.5454     -0.00000

 k-point    19 :       0.0000    0.2000    0.2000
  band No.  band energies     occupation 
      1     -29.0668      2.00000
      2     -29.0647      2.00000
      3     -29.0397      2.00000
      4     -16.6605      2.00000
      5     -16.6100      2.00000
      6     -16.5542      2.00000
      7     -13.4666      2.00000
      8     -12.7174      2.00000
      9     -12.6123      2.00000
     10       0.0066      2.00000
     11       0.4118      2.00000
     12       0.6885      2.00000
     13       1.1440      2.00000
     14       1.7934      2.00000
     15       2.1735      2.00000
     16       2.3422      2.00000
     17       2.8028      2.00000
     18       2.8214      2.00000
     19       6.2942     -0.00000
     20       6.4515     -0.00000
     21       6.6629     -0.00000
     22       8.5448     -0.00000

 k-point    20 :       0.2000    0.2000    0.2000
  band No.  band energies     occupation 
      1     -29.0666      2.00000
[...]
     17       3.3650      2.06147
     18       3.4701      1.78409
     19       7.8101     -0.00000
     20       7.9579     -0.00000
     21       8.0134     -0.00000
     22       9.5730      0.00000

 k-point    53 :      -0.2000    0.4000    0.4000
  band No.  band energies     occupation 
      1     -29.0546      2.00000
      2     -29.0444      2.00000
      3     -28.9935      2.00000
      4     -16.5703      2.00000
      5     -16.5161      2.00000
      6     -16.4210      2.00000
      7     -12.8811      2.00000
      8     -12.4774      2.00000
      9     -12.4043      2.00000
     10      -0.8330      2.00000
     11      -0.6062      2.00000
     12      -0.3488      2.00000
     13      -0.0608      2.00000
     14       0.2004      2.00000
     15       1.1595      2.00000
     16       2.6249      2.00000
     17       2.6707      2.00000
     18       3.4105      1.99890
     19       7.4605     -0.00000
     20       7.6396     -0.00000
     21       7.8303     -0.00000
     22       9.6237      0.00000

 k-point    54 :       0.0000   -0.4000    0.4000
  band No.  band energies     occupation 
      1     -29.0561      2.00000
      2     -29.0452      2.00000
      3     -28.9677      2.00000
      4     -16.5868      2.00000
      5     -16.5400      2.00000
      6     -16.3749      2.00000
      7     -13.0992      2.00000
      8     -12.4674      2.00000
      9     -12.3836      2.00000
     10      -0.9747      2.00000
     11      -0.7127      2.00000
     12      -0.1880      2.00000
     13       0.6299      2.00000
     14       0.9166      2.00000
     15       1.7475      2.00000
     16       1.7890      2.00000
     17       2.1753      2.00000
     18       3.3961      2.02660
     19       7.3879     -0.00000
     20       7.5235     -0.00000
     21       7.7691     -0.00000
     22       9.0622      0.00000

 k-point    55 :       0.2000   -0.4000    0.4000
  band No.  band energies     occupation 
      1     -29.0549      2.00000
      2     -29.0440      2.00000
      3     -28.9936      2.00000
      4     -16.5679      2.00000
      5     -16.5191      2.00000
      6     -16.4207      2.00000
      7     -12.8806      2.00000
      8     -12.4688      2.00000
      9     -12.4129      2.00000
     10      -0.8699      2.00000
     11      -0.6974      2.00000
     12      -0.1740      2.00000
     13      -0.0222      2.00000
     14       0.1598      2.00000
     15       1.1233      2.00000
     16       2.6363      2.00000
     17       2.6434      2.00000
     18       3.4050      2.01045
     19       7.4832     -0.00000
     20       7.6239     -0.00000
     21       7.8409     -0.00000
     22       9.6376      0.00000

 k-point    56 :       0.4000   -0.4000    0.4000
  band No.  band energies     occupation 
      1     -29.0530      2.00000
      2     -29.0426      2.00000
      3     -29.0344      2.00000
      4     -16.5374      2.00000
      5     -16.4954      2.00000
      6     -16.4822      2.00000
      7     -12.5441      2.00000
      8     -12.4520      2.00000
      9     -12.4414      2.00000
     10      -0.8519      2.00000
     11      -0.6482      2.00000
     12      -0.5193      2.00000
     13      -0.4574      2.00000
     14      -0.1689      2.00000
     15      -0.0351      2.00000
     16       3.3201      2.06967
     17       3.3729      2.05545
     18       3.4418      1.90731
     19       7.8144     -0.00000
     20       7.9594     -0.00000
     21       8.0045     -0.00000
     22       9.5232      0.00000

 k-point    57 :      -0.4000   -0.4000    0.4000
  band No.  band energies     occupation 
      1     -29.0531      2.00000
      2     -29.0424      2.00000
      3     -29.0345      2.00000
      4     -16.5372      2.00000
      5     -16.4950      2.00000
      6     -16.4825      2.00000
      7     -12.5450      2.00000
      8     -12.4499      2.00000
      9     -12.4431      2.00000
     10      -0.8461      2.00000
     11      -0.6629      2.00000
     12      -0.5443      2.00000
     13      -0.4439      2.00000
     14      -0.1552      2.00000
     15      -0.0254      2.00000
     16       3.3378      2.07077
     17       3.3611      2.06384
     18       3.4392      1.91666
     19       7.8172     -0.00000
     20       7.9629     -0.00000
     21       7.9968     -0.00000
     22       9.5090      0.00000

 k-point    58 :      -0.2000   -0.4000    0.4000
  band No.  band energies     occupation 
      1     -29.0550      2.00000
      2     -29.0439      2.00000
      3     -28.9936      2.00000
      4     -16.5678      2.00000
      5     -16.5188      2.00000
      6     -16.4207      2.00000
      7     -12.8811      2.00000
      8     -12.4688      2.00000
      9     -12.4133      2.00000
     10      -0.8705      2.00000
     11      -0.7005      2.00000
     12      -0.1866      2.00000
     13      -0.0206      2.00000
     14       0.1650      2.00000
     15       1.1394      2.00000
     16       2.6211      2.00000
     17       2.6648      2.00000
     18       3.4036      2.01327
     19       7.4891     -0.00000
     20       7.6111     -0.00000
     21       7.8395     -0.00000
     22       9.6291      0.00000

 k-point    59 :       0.0000   -0.2000    0.4000
  band No.  band energies     occupation 
      1     -29.0562      2.00000
      2     -29.0045      2.00000
      3     -28.9693      2.00000
      4     -16.6344      2.00000
      5     -16.4597      2.00000
      6     -16.3827      2.00000
      7     -13.1821      2.00000
      8     -12.7013      2.00000
      9     -12.4745      2.00000
     10      -0.6939      2.00000
     11      -0.2031      2.00000
     12       0.5939      2.00000
     13       0.7101      2.00000
     14       1.1919      2.00000
     15       1.5814      2.00000
     16       2.1786      2.00000
     17       2.5333      2.00000
     18       2.6973      2.00000
     19       6.5509     -0.00000
     20       7.4145     -0.00000
     21       7.5452     -0.00000
     22       8.8305     -0.00000

 k-point    60 :       0.2000   -0.2000    0.4000
  band No.  band energies     occupation 
      1     -29.0552      2.00000
      2     -29.0041      2.00000
      3     -28.9947      2.00000
      4     -16.6049      2.00000
      5     -16.4542      2.00000
      6     -16.4309      2.00000
      7     -13.0284      2.00000
      8     -12.6534      2.00000
      9     -12.4591      2.00000
     10      -0.6771      2.00000
     11      -0.2919      2.00000
     12       0.0408      2.00000
     13       0.3745      2.00000
     14       0.7778      2.00000
     15       1.4901      2.00000
     16       2.5301      2.00000
     17       2.6276      2.00000
     18       2.7897      2.00000
     19       6.8028     -0.00000
     20       7.4866     -0.00000
     21       7.5614     -0.00000
     22       9.6562      0.00000

 k-point    61 :       0.4000   -0.2000    0.4000
  band No.  band energies     occupation 
      1     -29.0537      2.00000
      2     -29.0373      2.00000
      3     -29.0013      2.00000
      4     -16.5616      2.00000
      5     -16.5217      2.00000
      6     -16.4256      2.00000
      7     -12.8999      2.00000
      8     -12.4629      2.00000
      9     -12.4028      2.00000
     10      -0.8195      2.00000
     11      -0.6441      2.00000
     12      -0.3479      2.00000
     13      -0.0414      2.00000
     14       0.2417      2.00000
     15       1.1725      2.00000
     16       2.6433      2.00000
     17       2.6736      2.00000
     18       3.3909      2.03476
     19       7.4416     -0.00000
     20       7.6166     -0.00000
     21       7.8467     -0.00000
     22       9.6060      0.00000

 k-point    62 :      -0.4000   -0.2000    0.4000
  band No.  band energies     occupation 
      1     -29.0538      2.00000
      2     -29.0371      2.00000
      3     -29.0014      2.00000
      4     -16.5603      2.00000
      5     -16.5234      2.00000
      6     -16.4255      2.00000
      7     -12.8995      2.00000
      8     -12.4585      2.00000
      9     -12.4070      2.00000
     10      -0.8448      2.00000
     11      -0.6917      2.00000
     12      -0.2480      2.00000
     13      -0.0047      2.00000
     14       0.2049      2.00000
     15       1.1498      2.00000
     16       2.6235      2.00000
     17       2.6748      2.00000
     18       3.3914      2.03391
     19       7.4769     -0.00000
     20       7.5839     -0.00000
     21       7.8577     -0.00000
     22       9.6409      0.00000

 k-point    63 :      -0.2000   -0.2000    0.4000
  band No.  band energies     occupation 
      1     -29.0553      2.00000
      2     -29.0035      2.00000
      3     -28.9952      2.00000
      4     -16.6047      2.00000
      5     -16.4557      2.00000
      6     -16.4300      2.00000
      7     -13.0260      2.00000
      8     -12.6556      2.00000
      9     -12.4585      2.00000
     10      -0.7100      2.00000
     11      -0.2656      2.00000
     12      -0.0074      2.00000
     13       0.4512      2.00000
     14       0.8530      2.00000
     15       1.4213      2.00000
     16       2.5279      2.00000
     17       2.5477      2.00000
     18       2.8078      2.00000
     19       6.8724     -0.00000
     20       7.4458     -0.00000
     21       7.5748     -0.00000
     22       9.6972      0.00000


--------------------------------------------------------------------------------------------------------


 soft charge-density along one line, spin component           1
         0         1         2         3         4         5         6         7         8         9
 total charge-density along one line
 
 pseudopotential strength for first ion, spin component:           1
-30.181  -0.008  -0.003   7.066   0.004   0.002   0.001   0.002
 -0.008 -30.175  -0.004   0.004   7.063   0.002  -0.000   0.002
 -0.003  -0.004 -30.186   0.002   0.002   7.069   0.002  -0.000
  7.066   0.004   0.002   3.775  -0.002  -0.001   0.001   0.002
  0.004   7.063   0.002  -0.002   3.777  -0.001   0.000   0.001
  0.002   0.002   7.069  -0.001  -0.001   3.774   0.002   0.000
  0.001  -0.000   0.002   0.001   0.000   0.002  -3.639  -0.002
  0.002   0.002  -0.000   0.002   0.001   0.000  -0.002  -3.634
  0.006  -0.015   0.003  -0.003   0.009  -0.002   0.002  -0.002
 -0.000   0.001   0.002   0.000   0.001   0.002  -0.004  -0.002
  0.009  -0.000  -0.006  -0.006   0.000   0.003  -0.000   0.003
  0.001  -0.000   0.002   0.001   0.000   0.002  -3.815  -0.003
  0.003   0.002  -0.000   0.002   0.002   0.000  -0.003  -3.808
  0.007  -0.018   0.004  -0.004   0.010  -0.002   0.002  -0.002
 -0.000   0.002   0.002   0.000   0.001   0.002  -0.005  -0.002
  0.012  -0.000  -0.007  -0.007   0.000   0.004  -0.000   0.004
  0.004   0.005   0.002  -0.001  -0.001  -0.001   0.001   0.002
  0.011   0.014   0.007  -0.003  -0.003  -0.002   0.002   0.004
 total augmentation occupancy for first ion, spin component:           1
  1.976  -0.000  -0.000  -0.064  -0.001  -0.000  -0.004  -0.011  -0.031   0.001  -0.051   0.004   0.011   0.027  -0.001   0.044
 -0.000   1.977  -0.000  -0.001  -0.064  -0.000   0.001  -0.009   0.078  -0.005   0.001  -0.001   0.009  -0.067   0.005  -0.001
 -0.000  -0.000   1.976  -0.000  -0.000  -0.065  -0.007   0.001  -0.018  -0.010   0.031   0.007  -0.001   0.016   0.010  -0.027
 -0.064  -0.001  -0.000   0.335  -0.008  -0.003  -0.053  -0.131  -0.222   0.005  -0.368   0.037   0.094   0.155  -0.004   0.256
 -0.001  -0.064  -0.000  -0.008   0.341  -0.005   0.005  -0.103   0.551  -0.058   0.005  -0.004   0.074  -0.384   0.041  -0.003
 -0.000  -0.000  -0.065  -0.003  -0.005   0.330  -0.086   0.005  -0.133  -0.122   0.225   0.061  -0.004   0.092   0.087  -0.156
 -0.004   0.001  -0.007  -0.053   0.005  -0.086   3.850   0.007   0.198   0.001  -0.001  -2.410  -0.008  -0.144  -0.007   0.001
 -0.011  -0.009   0.001  -0.131  -0.103   0.005   0.007   4.173  -0.228   0.012   0.400  -0.008  -2.621   0.166  -0.011  -0.291
 -0.031   0.078  -0.018  -0.222   0.551  -0.133   0.198  -0.228  13.781  -0.131   0.123  -0.144   0.167  -9.590   0.095  -0.091
  0.001  -0.005  -0.010   0.005  -0.058  -0.122   0.001   0.012  -0.131   4.008  -0.234  -0.007  -0.011   0.095  -2.512   0.170
 -0.051   0.001   0.031  -0.368   0.005   0.225  -0.001   0.400   0.123  -0.234  13.311   0.001  -0.292  -0.091   0.171  -9.241
  0.004  -0.001   0.007   0.037  -0.004   0.061  -2.410  -0.008  -0.144  -0.007   0.001   1.516   0.008   0.106   0.009  -0.001
  0.011   0.009  -0.001   0.094   0.074  -0.004  -0.008  -2.621   0.167  -0.011  -0.292   0.008   1.657  -0.122   0.009   0.214
  0.027  -0.067   0.016   0.155  -0.384   0.092  -0.144   0.166  -9.590   0.095  -0.091   0.106  -0.122   6.744  -0.070   0.068
 -0.001   0.005   0.010  -0.004   0.041   0.087  -0.007  -0.011   0.095  -2.512   0.171   0.009   0.009  -0.070   1.584  -0.125
  0.044  -0.001  -0.027   0.256  -0.003  -0.156   0.001  -0.291  -0.091   0.170  -9.241  -0.001   0.214   0.068  -0.125   6.484
  0.003   0.003   0.002   0.068   0.085   0.042  -0.074  -0.176   0.111  -0.102  -0.060   0.051   0.123  -0.080   0.071   0.043
  0.000   0.000  -0.000  -0.001  -0.001  -0.000   0.003   0.006  -0.003   0.004   0.001  -0.002  -0.005   0.002  -0.003  -0.001


------------------------ aborting loop because EDIFF is reached ----------------------------------------


    CHARGE:  cpu time    0.01: real time    0.01
    FORLOC:  cpu time    0.00: real time    0.00
    FORNL :  cpu time    0.06: real time    0.06
    STRESS:  cpu time    0.63: real time    0.63
    FORCOR:  cpu time    0.00: real time    0.00
    FORHAR:  cpu time    0.00: real time    0.00
    MIXING:  cpu time    0.00: real time    0.00
    OFIELD:  cpu time    0.00: real time    0.00

  FORCE on cell =-STRESS in cart. coord.  units (eV):
  Direction    XX          YY          ZZ          XY          YZ          ZX
  --------------------------------------------------------------------------------------
  Alpha Z   166.69950   166.69950   166.69950
  Ewald    -752.32085  -754.64169  -761.22580    -2.03409    -4.51693    -2.83543
  Hartree   234.72358   232.01099   226.29388    -0.94232    -2.28462    -1.37569
  E(xc)    -170.37148  -170.37235  -170.37496    -0.00425    -0.01197    -0.00663
  Local     -45.88797   -40.90246   -28.61527     2.97439     6.83631     4.22493
  n-local   -88.14581   -88.17900   -88.24128    -0.01922     0.04961     0.00338
  augment   132.78402   132.81681   132.83889    -0.01238    -0.03845    -0.02143
  Kinetic   521.32430   521.79051   522.29755     0.17431     0.42666     0.23839
  Fock        0.00000     0.00000     0.00000     0.00000     0.00000     0.00000
  -------------------------------------------------------------------------------------
  Total      -1.19472    -0.77768    -0.32749     0.13643     0.46061     0.22752
  in kB     -32.71459   -21.29514    -8.96753     3.73595    12.61290     6.23000
  external pressure =      -20.99 kB  Pullay stress =        0.00 kB


 VOLUME and BASIS-vectors are now :
 -----------------------------------------------------------------------------
  energy-cutoff  :      400.00
  volume of cell :       58.51
      direct lattice vectors                 reciprocal lattice vectors
     3.882200000  0.000000000  0.000000000     0.257585905  0.000000000  0.000000000
     0.000000000  3.882200000  0.000000000     0.000000000  0.257585905  0.000000000
     0.000000000  0.000000000  3.882200000     0.000000000  0.000000000  0.257585905

  length of vectors
     3.882200000  3.882200000  3.882200000     0.257585905  0.257585905  0.257585905


 FORCES acting on ions
    electron-ion (+dipol)            ewald-force                    non-local-force                 convergence-correction
 -----------------------------------------------------------------------------------------------
   -.294E+00 -.390E+01 -.994E+01   0.201E+00 0.373E+01 0.969E+01   0.725E-01 0.140E+00 0.226E+00   0.123E-01 0.158E-01 0.218E-01
   0.195E+02 0.375E+02 0.552E+02   -.192E+02 -.369E+02 -.544E+02   -.328E+00 -.605E+00 -.862E+00   -.172E-02 -.111E-02 0.220E-02
   -.145E+02 -.541E+01 -.849E+01   0.168E+02 0.544E+01 0.853E+01   -.229E+01 -.138E-01 -.130E-01   -.179E-01 0.184E-01 0.373E-03
   -.167E+01 -.216E+02 -.692E+01   0.158E+01 0.254E+02 0.681E+01   0.838E-01 -.375E+01 0.133E+00   0.142E-01 -.600E-02 -.787E-02
   -.764E+00 -.262E+01 -.246E+02   0.586E+00 0.237E+01 0.293E+02   0.163E+00 0.235E+00 -.482E+01   0.778E-02 0.110E-02 0.380E-01
 -----------------------------------------------------------------------------------------------
   0.229E+01 0.396E+01 0.527E+01   -.133E-14 0.444E-15 0.000E+00   -.230E+01 -.399E+01 -.533E+01   0.146E-01 0.282E-01 0.545E-01
 
 
 POSITION                                       TOTAL-FORCE (eV/Angst)
 -----------------------------------------------------------------------------------
      0.03815      0.06273      0.08008        -0.008296     -0.016443      0.000242
      2.01122      2.07769      2.14547         0.002493     -0.002783      0.008369
      1.93022     -0.04669     -0.07142         0.006451      0.030390      0.030111
     -0.02732      1.92461     -0.07756         0.006843     -0.000112      0.010219
     -0.03125     -0.05849      1.92210        -0.007491     -0.011053     -0.048941
 -----------------------------------------------------------------------------------
    total drift:                                0.002605     -0.007507     -0.008687


--------------------------------------------------------------------------------------------------------



  FREE ENERGIE OF THE ION-ELECTRON SYSTEM (eV)
  ---------------------------------------------------
  free  energy   TOTEN  =       -40.10751547 eV

  energy  without entropy=      -40.11427042  energy(sigma->0) =      -40.10976712
 
 d Force = 0.4472639E-04[ 0.658E-05, 0.829E-04]  d Energy = 0.3695800E-04 0.777E-05
 d Force = 0.2188521E-01[ 0.206E-01, 0.232E-01]  d Ewald  = 0.2188385E-01 0.135E-05


--------------------------------------------------------------------------------------------------------


    POTLOK:  cpu time    0.01: real time    0.01


--------------------------------------------------------------------------------------------------------


 stress matrix after NEB project (eV)
     -1.19472      0.13643      0.22752
      0.13643     -0.77768      0.46061
      0.22752      0.46061     -0.32749
  FORCES: max atom, RMS     0.050730    0.031686
  FORCE total and by dimension    0.070851    0.048941
  Stress total and by dimension    1.644529    1.194716


--------------------------------------------------------------------------------------------------------


  
 reached required accuracy - stopping structural energy minimisation
 writing wavefunctions
     LOOP+:  cpu time    1.93: real time    1.93
    4ORBIT:  cpu time    0.00: real time    0.00

 total amount of memory used by VASP on root node    61338. kBytes
========================================================================

   base      :      30000. kBytes
   nonl-proj :      29425. kBytes
   fftplans  :        145. kBytes
   grid      :        538. kBytes
   one-center:         77. kBytes
   wavefun   :       1153. kBytes
 
  
  
 General timing and accounting informations for this job:
 ========================================================
  
                  Total CPU time used (sec):       49.937
                            User time (sec):       49.502
                          System time (sec):        0.435
                         Elapsed time (sec):       49.947
  
                   Maximum memory used (kb):       89284.
                   Average memory used (kb):           0.
  
                          Minor page faults:        36448
                          Major page faults:            0
                 Voluntary context switches:          134
