 vasp.5.3.5 31Mar14 (build Dec 17 2015 22:09:37) complex                        
  
 executed on             LinuxIFC date 2017.03.19  05:11:30
 running on   22 total cores
 distrk:  each k-point on   22 cores,    1 groups
 distr:  one band on NCORES_PER_BAND=   1 cores,   22 groups


--------------------------------------------------------------------------------------------------------


 INCAR:
 POTCAR:    PAW_PBE Ti_pv 07Sep2000               
 POTCAR:    PAW_PBE Ca_pv 06Sep2000               
 POTCAR:    PAW_PBE O 08Apr2002                   

 ----------------------------------------------------------------------------- 
|                                                                             |
|           W    W    AA    RRRRR   N    N  II  N    N   GGGG   !!!           |
|           W    W   A  A   R    R  NN   N  II  NN   N  G    G  !!!           |
|           W    W  A    A  R    R  N N  N  II  N N  N  G       !!!           |
|           W WW W  AAAAAA  RRRRR   N  N N  II  N  N N  G  GGG   !            |
|           WW  WW  A    A  R   R   N   NN  II  N   NN  G    G                |
|           W    W  A    A  R    R  N    N  II  N    N   GGGG   !!!           |
|                                                                             |
|      For optimal performance we recommend to set                            |
|        NCORE= 4 - approx SQRT( number of cores)                             |
|      NCORE specifies how many cores store one orbital (NPAR=cpu/NCORE).     |
|      This setting can  greatly improve the performance of VASP for DFT.     |
|      The default, NPAR=number of cores might be grossly inefficient         |
|      on modern multi-core architectures or massively parallel machines.     |
|      Do your own testing !!!!                                               |
|      Unfortunately you need to use the default for GW and RPA calculations. |
|      (for HF NCORE is supported but not extensively tested yet)             |
|                                                                             |
 ----------------------------------------------------------------------------- 

 POTCAR:    PAW_PBE Ti_pv 07Sep2000               
   VRHFIN =Ti: d3 s1                                                            
   LEXCH  = PE                                                                  
   EATOM  =  1042.5995 eV,   76.6289 Ry                                         
                                                                                
   TITEL  = PAW_PBE Ti_pv 07Sep2000                                             
   LULTRA =        F    use ultrasoft PP ?                                      
   IUNSCR =        1    unscreen: 0-lin 1-nonlin 2-no                           
   RPACOR =    2.200    partial core radius                                     
   POMASS =   47.880; ZVAL   =   10.000    mass and valenz                      
   RCORE  =    2.500    outmost cutoff radius                                   
   RWIGS  =    2.500; RWIGS  =    1.323    wigner-seitz radius (au A)           
   ENMAX  =  222.335; ENMIN  =  166.751 eV                                      
   RCLOC  =    1.701    cutoff for local pot                                    
   LCOR   =        T    correct aug charges                                     
   LPAW   =        T    paw PP                                                  
   EAUG   =  482.848                                                            
   DEXC   =    0.000                                                            
   RMAX   =    2.564    core radius for proj-oper                               
   RAUG   =    1.300    factor for augmentation sphere                          
   RDEP   =    2.538    radius for radial grids                                 
   RDEPT  =    1.952    core radius for aug-charge                              
                                                                                
   Atomic configuration                                                         
    8 entries                                                                   
     n  l   j            E        occ.                                          
     1  0  0.50     -4865.3608   2.0000                                         
     2  0  0.50      -533.1368   2.0000                                         
     2  1  1.50      -440.5031   6.0000                                         
     3  0  0.50       -59.3186   2.0000                                         
     3  1  1.50       -35.7012   6.0000                                         
     3  2  2.50        -1.9157   3.0000                                         
     4  0  0.50        -3.7291   1.0000                                         
     4  3  2.50        -1.3606   0.0000                                         
   Description                                                                  
     l       E           TYP  RCUT    TYP  RCUT                                 
     1    -35.7012140     23  2.300                                             
     1     -1.3605826     23  2.300                                             
     2     -1.9156996     23  2.500                                             
     2     -0.4063033     23  2.500                                             
     0     -3.7290856     23  2.500                                             
     0     20.4087390     23  2.500                                             
  local pseudopotential read in
  partial core-charges read in
  partial kinetic energy density read in
  atomic valenz-charges read in
  non local Contribution for L=           1  read in
    real space projection operators read in
  non local Contribution for L=           1  read in
    real space projection operators read in
  non local Contribution for L=           2  read in
    real space projection operators read in
  non local Contribution for L=           2  read in
    real space projection operators read in
  non local Contribution for L=           0  read in
    real space projection operators read in
  non local Contribution for L=           0  read in
    real space projection operators read in
    PAW grid and wavefunctions read in
 
   number of l-projection  operators is LMAX  =           6
   number of lm-projection operators is LMMAX =          18
 
 POTCAR:    PAW_PBE Ca_pv 06Sep2000               
   VRHFIN =Ca: p6s2d0.01                                                        
   LEXCH  = PE                                                                  
   EATOM  =   612.6676 eV,   45.0298 Ry                                         
                                                                                
   TITEL  = PAW_PBE Ca_pv 06Sep2000                                             
   LULTRA =        F    use ultrasoft PP ?                                      
   IUNSCR =        1    unscreen: 0-lin 1-nonlin 2-no                           
   RPACOR =    2.300    partial core radius                                     
   POMASS =   40.078; ZVAL   =    8.000    mass and valenz                      
   RCORE  =    3.000    outmost cutoff radius                                   
   RWIGS  =    3.300; RWIGS  =    1.746    wigner-seitz radius (au A)           
   ENMAX  =  119.559; ENMIN  =   89.670 eV                                      
   RCLOC  =    1.709    cutoff for local pot                                    
   LCOR   =        T    correct aug charges                                     
   LPAW   =        T    paw PP                                                  
   EAUG   =  325.799                                                            
   DEXC   =    0.000                                                            
   RMAX   =    3.072    core radius for proj-oper                               
   RAUG   =    1.300    factor for augmentation sphere                          
   RDEP   =    3.090    radius for radial grids                                 
   RDEPT  =    2.377    core radius for aug-charge                              
                                                                                
   Atomic configuration                                                         
    7 entries                                                                   
     n  l   j            E        occ.                                          
     1  0  0.50     -3949.1705   2.0000                                         
     2  0  0.50      -414.3434   2.0000                                         
     2  1  1.50      -334.7047   6.0000                                         
     3  0  0.50       -47.0896   2.0000                                         
     3  1  1.50       -28.0061   6.0000                                         
     4  0  0.50        -3.7663   2.0000                                         
     3  2  1.50        -4.0817   0.0000                                         
   Description                                                                  
     l       E           TYP  RCUT    TYP  RCUT                                 
     1    -28.0060855     23  3.000                                             
     1      1.3605826     23  3.000                                             
     0     -3.7663320     23  3.000                                             
     0      4.1207953     23  3.000                                             
     2     -4.0817478     23  3.000                                             
     2     -0.8716232     23  3.000                                             
  local pseudopotential read in
  partial core-charges read in
  partial kinetic energy density read in
  atomic valenz-charges read in
  non local Contribution for L=           1  read in
    real space projection operators read in
  non local Contribution for L=           1  read in
    real space projection operators read in
  non local Contribution for L=           0  read in
    real space projection operators read in
  non local Contribution for L=           0  read in
    real space projection operators read in
  non local Contribution for L=           2  read in
    real space projection operators read in
  non local Contribution for L=           2  read in
    real space projection operators read in
    PAW grid and wavefunctions read in
 
   number of l-projection  operators is LMAX  =           6
   number of lm-projection operators is LMMAX =          18
 
 POTCAR:    PAW_PBE O 08Apr2002                   
   VRHFIN =O: s2p4                                                              
   LEXCH  = PE                                                                  
   EATOM  =   432.3788 eV,   31.7789 Ry                                         
                                                                                
   TITEL  = PAW_PBE O 08Apr2002                                                 
   LULTRA =        F    use ultrasoft PP ?                                      
   IUNSCR =        1    unscreen: 0-lin 1-nonlin 2-no                           
   RPACOR =    1.200    partial core radius                                     
   POMASS =   16.000; ZVAL   =    6.000    mass and valenz                      
   RCORE  =    1.520    outmost cutoff radius                                   
   RWIGS  =    1.550; RWIGS  =    0.820    wigner-seitz radius (au A)           
   ENMAX  =  400.000; ENMIN  =  300.000 eV                                      
   ICORE  =        2    local potential                                         
   LCOR   =        T    correct aug charges                                     
   LPAW   =        T    paw PP                                                  
   EAUG   =  605.392                                                            
   DEXC   =    0.000                                                            
   RMAX   =    1.553    core radius for proj-oper                               
   RAUG   =    1.300    factor for augmentation sphere                          
   RDEP   =    1.550    radius for radial grids                                 
   RDEPT  =    1.329    core radius for aug-charge                              
                                                                                
   Atomic configuration                                                         
    4 entries                                                                   
     n  l   j            E        occ.                                          
     1  0  0.50      -514.6923   2.0000                                         
     2  0  0.50       -23.9615   2.0000                                         
     2  1  0.50        -9.0305   4.0000                                         
     3  2  1.50        -9.5241   0.0000                                         
   Description                                                                  
     l       E           TYP  RCUT    TYP  RCUT                                 
     0    -23.9615318     23  1.200                                             
     0     -9.5240782     23  1.200                                             
     1     -9.0304911     23  1.520                                             
     1      8.1634956     23  1.520                                             
     2     -9.5240782      7  1.500                                             
  local pseudopotential read in
  partial core-charges read in
  partial kinetic energy density read in
  kinetic energy density of atom read in
  atomic valenz-charges read in
  non local Contribution for L=           0  read in
    real space projection operators read in
  non local Contribution for L=           0  read in
    real space projection operators read in
  non local Contribution for L=           1  read in
    real space projection operators read in
  non local Contribution for L=           1  read in
    real space projection operators read in
    PAW grid and wavefunctions read in
 
   number of l-projection  operators is LMAX  =           4
   number of lm-projection operators is LMMAX =           8
 
  PAW_PBE Ti_pv 07Sep2000               :
 energy of atom  1       EATOM=-1042.5995
 kinetic energy error for atom=    0.0037 (will be added to EATOM!!)
  PAW_PBE Ca_pv 06Sep2000               :
 energy of atom  2       EATOM= -612.6676
 kinetic energy error for atom=    0.0002 (will be added to EATOM!!)
  PAW_PBE O 08Apr2002                   :
 energy of atom  3       EATOM= -432.3788
 kinetic energy error for atom=    0.1156 (will be added to EATOM!!)
 
 
 POSCAR: CaTiO3                                  
  positions in direct lattice
  velocities in cartesian coordinates
  No initial velocities read in
 exchange correlation table for  LEXCH =        8
   RHO(1)=    0.500       N(1)  =     2000
   RHO(2)=  100.500       N(2)  =     4000

 VTST: version 3.1, (03/28/14)

 CHAIN: initializing optimizer
 
 OPT: Using VASP Conjugate-Gradient optimizer
 CHAIN: Read ICHAIN            0
 
 POSCAR: CaTiO3                                  
  positions in direct lattice
  velocities in cartesian coordinates
  No initial velocities read in
 


--------------------------------------------------------------------------------------------------------


 ion  position               nearest neighbor table
   1  0.000  0.000  0.000-   3 1.94   4 1.94   5 1.94   5 1.94   4 1.94   3 1.94   2 3.29   2 3.34
                             2 3.34   2 3.34   2 3.39   2 3.39   2 3.39   2 3.43
   2  0.510  0.510  0.510-   3 2.69   4 2.69   5 2.69   3 2.75   4 2.75   3 2.75   5 2.75   4 2.75
                             5 2.75   3 2.80   4 2.80   5 2.80   1 3.29   1 3.34   1 3.34   1 3.34
   3  0.500  0.000  0.000-   1 1.94   1 1.94   2 2.69   2 2.75   2 2.75   2 2.80
   4  0.000  0.500  0.000-   1 1.94   1 1.94   2 2.69   2 2.75   2 2.75   2 2.80
   5  0.000  0.000  0.500-   1 1.94   1 1.94   2 2.69   2 2.75   2 2.75   2 2.80
 
  LATTYP: Found a simple cubic cell.
 ALAT       =     3.8822000000
  
  Lattice vectors:
  
 A1 = (   3.8822000000,   0.0000000000,   0.0000000000)
 A2 = (   0.0000000000,   3.8822000000,   0.0000000000)
 A3 = (   0.0000000000,   0.0000000000,   3.8822000000)


Analysis of symmetry for initial positions (statically):
=====================================================================
 Subroutine PRICEL returns:
 Original cell was already a primitive cell.
 

 Routine SETGRP: Setting up the symmetry group for a 
 simple cubic supercell.


 Subroutine GETGRP returns: Found  6 space group operations
 (whereof  6 operations were pure point group operations)
 out of a pool of 48 trial point group operations.


The static configuration has the point symmetry C_3v.


Analysis of symmetry for dynamics (positions and initial velocities):
=====================================================================
 Subroutine PRICEL returns:
 Original cell was already a primitive cell.
 

 Routine SETGRP: Setting up the symmetry group for a 
 simple cubic supercell.


 Subroutine GETGRP returns: Found  6 space group operations
 (whereof  6 operations were pure point group operations)
 out of a pool of 48 trial point group operations.


The dynamic configuration has the point symmetry C_3v.
 
 
 KPOINTS: k-points                                

Automatic generation of k-mesh.
Space group operators:
 irot       det(A)        alpha          n_x          n_y          n_z        tau_x        tau_y        tau_z
    1     1.000000     0.000000     1.000000     0.000000     0.000000     0.000000     0.000000     0.000000
    2     1.000000   120.000000    -0.577350    -0.577350    -0.577350     0.000000     0.000000     0.000000
    3     1.000000   120.000000     0.577350     0.577350     0.577350     0.000000     0.000000     0.000000
    4    -1.000000   180.000000     0.000000    -0.707107     0.707107     0.000000     0.000000     0.000000
    5    -1.000000   180.000000     0.707107    -0.707107     0.000000     0.000000     0.000000     0.000000
    6    -1.000000   180.000000     0.707107     0.000000    -0.707107     0.000000     0.000000     0.000000
 
 Subroutine IBZKPT returns following result:
 ===========================================
 
 Found     19 irreducible k-points:
 
 Following reciprocal coordinates:
            Coordinates               Weight
  0.000000  0.000000  0.000000      1.000000
  0.200000  0.000000  0.000000      6.000000
  0.400000  0.000000  0.000000      6.000000
  0.200000  0.200000  0.000000      6.000000
  0.400000  0.200000  0.000000     12.000000
 -0.400000  0.200000  0.000000     12.000000
 -0.200000  0.200000  0.000000      6.000000
  0.400000  0.400000  0.000000      6.000000
 -0.400000  0.400000  0.000000      6.000000
  0.200000  0.200000  0.200000      2.000000
  0.400000  0.200000  0.200000      6.000000
 -0.400000  0.200000  0.200000      6.000000
 -0.200000  0.200000  0.200000      6.000000
  0.400000  0.400000  0.200000      6.000000
 -0.400000  0.400000  0.200000     12.000000
 -0.200000  0.400000  0.200000     12.000000
 -0.400000 -0.400000  0.200000      6.000000
  0.400000  0.400000  0.400000      2.000000
 -0.400000  0.400000  0.400000      6.000000
 
 Following cartesian coordinates:
            Coordinates               Weight
  0.000000  0.000000  0.000000      1.000000
  0.200000  0.000000  0.000000      6.000000
  0.400000  0.000000  0.000000      6.000000
  0.200000  0.200000  0.000000      6.000000
  0.400000  0.200000  0.000000     12.000000
 -0.400000  0.200000  0.000000     12.000000
 -0.200000  0.200000  0.000000      6.000000
  0.400000  0.400000  0.000000      6.000000
 -0.400000  0.400000  0.000000      6.000000
  0.200000  0.200000  0.200000      2.000000
  0.400000  0.200000  0.200000      6.000000
 -0.400000  0.200000  0.200000      6.000000
 -0.200000  0.200000  0.200000      6.000000
  0.400000  0.400000  0.200000      6.000000
 -0.400000  0.400000  0.200000     12.000000
 -0.200000  0.400000  0.200000     12.000000
 -0.400000 -0.400000  0.200000      6.000000
  0.400000  0.400000  0.400000      2.000000
 -0.400000  0.400000  0.400000      6.000000
 


--------------------------------------------------------------------------------------------------------




 Dimension of arrays:
   k-points           NKPTS =     19   k-points in BZ     NKDIM =     19   number of bands    NBANDS=     22
   number of dos      NEDOS =    301   number of ions     NIONS =      5
   non local maximal  LDIM  =      6   non local SUM 2l+1 LMDIM =     18
   total plane-waves  NPLWV =   8000
   max r-space proj   IRMAX =      1   max aug-charges    IRDMAX=   9776
   dimension x,y,z NGX =    20 NGY =   20 NGZ =   20
   dimension x,y,z NGXF=    40 NGYF=   40 NGZF=   40
   support grid    NGXF=    40 NGYF=   40 NGZF=   40
   ions per type =               1   1   3
 NGX,Y,Z   is equivalent  to a cutoff of   8.56,  8.56,  8.56 a.u.
 NGXF,Y,Z  is equivalent  to a cutoff of  17.13, 17.13, 17.13 a.u.


 I would recommend the setting:
   dimension x,y,z NGX =    19 NGY =   19 NGZ =   19
 SYSTEM =  unknown system                          
 POSCAR =  CaTiO3                                  

 Startparameter for this run:
   NWRITE =      2    write-flag & timer
   PREC   = normal    normal or accurate (medium, high low for compatibility)
   ISTART =      1    job   : 0-new  1-cont  2-samecut
   ICHARG =      0    charge: 1-file 2-atom 10-const
   ISPIN  =      1    spin polarized calculation?
   LNONCOLLINEAR =      F non collinear calculations
   LSORBIT =      F    spin-orbit coupling
   INIWAV =      1    electr: 0-lowe 1-rand  2-diag
   LASPH  =      F    aspherical Exc in radial PAW
   METAGGA=      F    non-selfconsistent MetaGGA calc.

 Electronic Relaxation 1
   ENCUT  =  400.0 eV  29.40 Ry    5.42 a.u.   6.33  6.33  6.33*2*pi/ulx,y,z
   ENINI  =  400.0     initial cutoff
   ENAUG  =  605.4 eV  augmentation charge cutoff
   NELM   =     60;   NELMIN=  2; NELMDL=  0     # of ELM steps 
   EDIFF  = 0.1E-03   stopping-criterion for ELM
   LREAL  =      F    real-space projection
   NLSPLINE    = F    spline interpolate recip. space projectors
   LCOMPAT=      F    compatible to vasp.4.4
   GGA_COMPAT  = T    GGA compatible to vasp.4.4-vasp.4.6
   LMAXPAW     = -100 max onsite density
   LMAXMIX     =    2 max onsite mixed and CHGCAR
   VOSKOWN=      0    Vosko Wilk Nusair interpolation
   ROPT   =    0.00000   0.00000   0.00000
 Ionic relaxation
   EDIFFG = 0.1E-02   stopping-criterion for IOM
   NSW    =   1024    number of steps for IOM
   NBLOCK =      1;   KBLOCK =   1024    inner block; outer block 
   IBRION =      2    ionic relax: 0-MD 1-quasi-New 2-CG
   NFREE  =      1    steps in history (QN), initial steepest desc. (CG)
   ISIF   =      2    stress and relaxation
   IWAVPR =     11    prediction:  0-non 1-charg 2-wave 3-comb
   ISYM   =      2    0-nonsym 1-usesym 2-fastsym
   LCORR  =      T    Harris-Foulkes like correction to forces

   POTIM  = 0.5000    time-step for ionic-motion
   TEIN   =    0.0    initial temperature
   TEBEG  =    0.0;   TEEND  =   0.0 temperature during run
   SMASS  =  -3.00    Nose mass-parameter (am)
   estimated Nose-frequenzy (Omega)   =  0.10E-29 period in steps =****** mass=  -0.344E-27a.u.
   SCALEE = 1.0000    scale energy and forces
   NPACO  =    256;   APACO  = 16.0  distance and # of slots for P.C.
   PSTRESS=    0.0 pullay stress

  Mass of Ions in am
   POMASS =  47.88 40.08 16.00
  Ionic Valenz
   ZVAL   =  10.00  8.00  6.00
  Atomic Wigner-Seitz radii
   RWIGS  =  -1.00 -1.00 -1.00
  virtual crystal weights 
   VCA    =   1.00  1.00  1.00
   NELECT =      36.0000    total number of electrons
   NUPDOWN=      -1.0000    fix difference up-down

 DOS related values:
   EMIN   =  10.00;   EMAX   =-10.00  energy-range for DOS
   EFERMI =   0.00
   ISMEAR =     1;   SIGMA  =   0.20  broadening in eV -4-tet -1-fermi 0-gaus

 Electronic relaxation 2 (details)
   IALGO  =     38    algorithm
   LDIAG  =      T    sub-space diagonalisation (order eigenvalues)
   LSUBROT=      F    optimize rotation matrix (better conditioning)
   TURBO    =      0    0=normal 1=particle mesh
   IRESTART =      0    0=no restart 2=restart with 2 vectors
   NREBOOT  =      0    no. of reboots
   NMIN     =      0    reboot dimension
   EREF     =   0.00    reference energy to select bands
   IMIX   =      4    mixing-type and parameters
     AMIX     =   0.40;   BMIX     =  1.00
     AMIX_MAG =   1.60;   BMIX_MAG =  1.00
     AMIN     =   0.10
     WC   =   100.;   INIMIX=   1;  MIXPRE=   1;  MAXMIX= -45

 Intra band minimization:
   WEIMIN = 0.0010     energy-eigenvalue tresh-hold
   EBREAK =  0.11E-05  absolut break condition
   DEPER  =   0.30     relativ break condition  

   TIME   =   0.40     timestep for ELM

  volume/ion in A,a.u.               =      11.70        78.97
  Fermi-wavevector in a.u.,A,eV,Ry     =   1.392401  2.631257 26.378723  1.938781
  Thomas-Fermi vector in A             =   2.516148
 
 Write flags
   LWAVE  =      T    write WAVECAR
   LCHARG =      T    write CHGCAR
   LVTOT  =      F    write LOCPOT, total local potential
   LVHAR  =      F    write LOCPOT, Hartree potential only
   LELF   =      F    write electronic localiz. function (ELF)
   LORBIT =      0    0 simple, 1 ext, 2 COOP (PROOUT)


 Dipole corrections
   LMONO  =      F    monopole corrections only (constant potential shift)
   LDIPOL =      F    correct potential (dipole corrections)
   IDIPOL =      0    1-x, 2-y, 3-z, 4-all directions 
   EPSILON=  1.0000000 bulk dielectric constant

 Exchange correlation treatment:
   GGA     =    --    GGA type
   LEXCH   =     8    internal setting for exchange type
   VOSKOWN=      0    Vosko Wilk Nusair interpolation
   LHFCALC =     F    Hartree Fock is set to
   LHFONE  =     F    Hartree Fock one center treatment
   AEXX    =    0.0000 exact exchange contribution

 Linear response parameters
   LEPSILON=     F    determine dielectric tensor
   LRPA    =     F    only Hartree local field effects (RPA)
   LNABLA  =     F    use nabla operator in PAW spheres
   LVEL    =     F    velocity operator in full k-point grid
   LINTERFAST=   F  fast interpolation
   KINTER  =     0    interpolate to denser k-point grid
   CSHIFT  =0.1000    complex shift for real part using Kramers Kronig
   OMEGAMAX=  -1.0    maximum frequency
   DEG_THRESHOLD= 0.2000000E-02 threshold for treating states as degnerate
   RTIME   =    0.100 relaxation time in fs

 Orbital magnetization related:
   ORBITALMAG=     F  switch on orbital magnetization
   LCHIMAG   =     F  perturbation theory with respect to B field
   DQ        =  0.001000  dq finite difference perturbation B field



--------------------------------------------------------------------------------------------------------


 conjugate gradient relaxation of ions
 charge density and potential will be updated during run
 non-spin polarized calculation
 Variant of blocked Davidson
 Davidson routine will perform the subspace rotation
 perform sub-space diagonalisation
    after iterative eigenvector-optimisation
 modified Broyden-mixing scheme, WC =      100.0
 initial mixing is a Kerker type mixing with AMIX =  0.4000 and BMIX =      1.0000
 Hartree-type preconditioning will be used
 using additional bands            4
 reciprocal scheme for non local part
 use partial core corrections
 calculate Harris-corrections to forces 
   (improved forces if not selfconsistent)
 use gradient corrections 
 use of overlap-Matrix (Vanderbilt PP)
 Methfessel and Paxton  Order N= 1 SIGMA  =   0.20


--------------------------------------------------------------------------------------------------------


  energy-cutoff  :      400.00
  volume of cell :       58.51
      direct lattice vectors                 reciprocal lattice vectors
     3.882200000  0.000000000  0.000000000     0.257585905  0.000000000  0.000000000
     0.000000000  3.882200000  0.000000000     0.000000000  0.257585905  0.000000000
     0.000000000  0.000000000  3.882200000     0.000000000  0.000000000  0.257585905

  length of vectors
     3.882200000  3.882200000  3.882200000     0.257585905  0.257585905  0.257585905


 
 old parameters found on file WAVECAR:
  energy-cutoff  :      400.00
  volume of cell :       58.51
      direct lattice vectors                 reciprocal lattice vectors
     3.882200000  0.000000000  0.000000000     0.257585905  0.000000000  0.000000000
     0.000000000  3.882200000  0.000000000     0.000000000  0.257585905  0.000000000
     0.000000000  0.000000000  3.882200000     0.000000000  0.000000000  0.257585905

  length of vectors

 
 k-points in units of 2pi/SCALE and weight: k-points                                
   0.00000000  0.00000000  0.00000000       0.008
   0.20000000  0.00000000  0.00000000       0.048
   0.40000000  0.00000000  0.00000000       0.048
   0.20000000  0.20000000  0.00000000       0.048
   0.40000000  0.20000000  0.00000000       0.096
  -0.40000000  0.20000000  0.00000000       0.096
  -0.20000000  0.20000000  0.00000000       0.048
   0.40000000  0.40000000  0.00000000       0.048
  -0.40000000  0.40000000  0.00000000       0.048
   0.20000000  0.20000000  0.20000000       0.016
   0.40000000  0.20000000  0.20000000       0.048
  -0.40000000  0.20000000  0.20000000       0.048
  -0.20000000  0.20000000  0.20000000       0.048
   0.40000000  0.40000000  0.20000000       0.048
  -0.40000000  0.40000000  0.20000000       0.096
  -0.20000000  0.40000000  0.20000000       0.096
  -0.40000000 -0.40000000  0.20000000       0.048
   0.40000000  0.40000000  0.40000000       0.016
  -0.40000000  0.40000000  0.40000000       0.048
 
 k-points in reciprocal lattice and weights: k-points                                
   0.00000000  0.00000000  0.00000000       0.008
   0.20000000  0.00000000  0.00000000       0.048
   0.40000000  0.00000000  0.00000000       0.048
   0.20000000  0.20000000  0.00000000       0.048
   0.40000000  0.20000000  0.00000000       0.096
  -0.40000000  0.20000000  0.00000000       0.096
  -0.20000000  0.20000000  0.00000000       0.048
   0.40000000  0.40000000  0.00000000       0.048
  -0.40000000  0.40000000  0.00000000       0.048
   0.20000000  0.20000000  0.20000000       0.016
   0.40000000  0.20000000  0.20000000       0.048
  -0.40000000  0.20000000  0.20000000       0.048
  -0.20000000  0.20000000  0.20000000       0.048
   0.40000000  0.40000000  0.20000000       0.048
  -0.40000000  0.40000000  0.20000000       0.096
  -0.20000000  0.40000000  0.20000000       0.096
  -0.40000000 -0.40000000  0.20000000       0.048
   0.40000000  0.40000000  0.40000000       0.016
  -0.40000000  0.40000000  0.40000000       0.048
 
 position of ions in fractional coordinates (direct lattice) 
   0.00000000  0.00000000  0.00000000
   0.51000000  0.51000000  0.51000000
   0.50000000  0.00000000  0.00000000
   0.00000000  0.50000000  0.00000000
   0.00000000  0.00000000  0.50000000
 
 position of ions in cartesian coordinates  (Angst):
   0.00000000  0.00000000  0.00000000
   1.97992200  1.97992200  1.97992200
   1.94110000  0.00000000  0.00000000
   0.00000000  1.94110000  0.00000000
   0.00000000  0.00000000  1.94110000
 


--------------------------------------------------------------------------------------------------------


 k-point  1 :   0.0000 0.0000 0.0000  plane waves:    1045
 k-point  2 :   0.2000 0.0000 0.0000  plane waves:    1069
 k-point  3 :   0.4000 0.0000 0.0000  plane waves:    1064
 k-point  4 :   0.2000 0.2000 0.0000  plane waves:    1073
 k-point  5 :   0.4000 0.2000 0.0000  plane waves:    1072
 k-point  6 :  -0.4000 0.2000 0.0000  plane waves:    1072
 k-point  7 :  -0.2000 0.2000 0.0000  plane waves:    1073
 k-point  8 :   0.4000 0.4000 0.0000  plane waves:    1063
 k-point  9 :  -0.4000 0.4000 0.0000  plane waves:    1063
 k-point 10 :   0.2000 0.2000 0.2000  plane waves:    1066
 k-point 11 :   0.4000 0.2000 0.2000  plane waves:    1068
 k-point 12 :  -0.4000 0.2000 0.2000  plane waves:    1068
 k-point 13 :  -0.2000 0.2000 0.2000  plane waves:    1066
 k-point 14 :   0.4000 0.4000 0.2000  plane waves:    1054
 k-point 15 :  -0.4000 0.4000 0.2000  plane waves:    1054
 k-point 16 :  -0.2000 0.4000 0.2000  plane waves:    1068
 k-point 17 :  -0.4000-0.4000 0.2000  plane waves:    1054
 k-point 18 :   0.4000 0.4000 0.4000  plane waves:    1058
 k-point 19 :  -0.4000 0.4000 0.4000  plane waves:    1058

 maximum and minimum number of plane-waves per node :      1073     1045

 maximum number of plane-waves:      1073
 maximum index in each direction: 
   IXMAX=    6   IYMAX=    6   IZMAX=    6
   IXMIN=   -6   IYMIN=   -6   IZMIN=   -6

 WARNING: aliasing errors must be expected set NGX to  26 to avoid them
 WARNING: aliasing errors must be expected set NGY to  26 to avoid them
 WARNING: aliasing errors must be expected set NGZ to  26 to avoid them
 aliasing errors are usually negligible using standard VASP settings
 and one can safely disregard these warnings

 serial   3D FFT for wavefunctions
 parallel 3D FFT for charge:
    minimum data exchange during FFTs selected (reduces bandwidth)


 total amount of memory used by VASP on root node    40041. kBytes
========================================================================

   base      :      30000. kBytes
   nonl-proj :       8934. kBytes
   fftplans  :        145. kBytes
   grid      :        538. kBytes
   one-center:         77. kBytes
   wavefun   :        347. kBytes
 
     INWAV:  cpu time    0.07: real time    0.07
 Broyden mixing: mesh for mixing (old mesh)
   NGX = 13   NGY = 13   NGZ = 13
  (NGX  = 40   NGY  = 40   NGZ  = 40)
  gives a total of   2197 points

 charge density for first step will be calculated from the start-wavefunctions


--------------------------------------------------------------------------------------------------------


 Maximum index for augmentation-charges          534 (set IRDMAX)


--------------------------------------------------------------------------------------------------------


 initial charge from wavefunction
 First call to EWALD:  gamma=   0.457
 Maximum number of real-space cells 3x 3x 3
 Maximum number of reciprocal cells 3x 3x 3

 FEWALD executed in parallel
    FEWALD:  cpu time    0.00: real time    0.00


----------------------------------------- Iteration    1(   1)  ---------------------------------------


    POTLOK:  cpu time    0.01: real time    0.01
    SETDIJ:  cpu time    0.00: real time    0.00
     EDDAV:  cpu time    0.16: real time    0.16
       DOS:  cpu time    0.00: real time    0.00
    CHARGE:  cpu time    0.01: real time    0.01
    MIXING:  cpu time    0.00: real time    0.00
    --------------------------------------------
      LOOP:  cpu time    0.18: real time    0.18

 eigenvalue-minimisations  :   946
 total energy-change (2. order) :-0.5319786E+02  (-0.4375869E+02)
 number of electron      35.9999978 magnetization 
 augmentation part       11.1990964 magnetization 

 Broyden mixing:
  rms(total) = 0.20006E+01    rms(broyden)= 0.19987E+01
  rms(prec ) = 0.44179E+01
  weight for this iteration     100.00

 Free energy of the ion-electron system (eV)
  ---------------------------------------------------
  alpha Z        PSCENC =       166.69949767
  Ewald energy   TEWEN  =     -2277.25163274
  -Hartree energ DENC   =      -679.09577844
  -exchange      EXHF   =         0.00000000
  -V(xc)+E(xc)   XCENC  =       137.15909886
  PAW double counting   =      5184.04644518    -5189.25043583
  entropy T*S    EENTRO =         0.00685966
  eigenvalues    EBANDS =      -347.56466344
  atomic energy  EATOM  =      2952.05274943
  ---------------------------------------------------
  free energy    TOTEN  =       -53.19785964 eV

  energy without entropy =      -53.20471931  energy(sigma->0) =      -53.20014620


--------------------------------------------------------------------------------------------------------




----------------------------------------- Iteration    1(   2)  ---------------------------------------


    POTLOK:  cpu time    0.00: real time    0.00
    SETDIJ:  cpu time    0.00: real time    0.00
     EDDAV:  cpu time    0.15: real time    0.15
       DOS:  cpu time    0.00: real time    0.00
    CHARGE:  cpu time    0.00: real time    0.00
    MIXING:  cpu time    0.00: real time    0.00
    --------------------------------------------
      LOOP:  cpu time    0.16: real time    0.16

 eigenvalue-minimisations  :  1012
 total energy-change (2. order) : 0.1091227E+02  (-0.3681994E+01)
 number of electron      35.9999980 magnetization 
 augmentation part       11.1884582 magnetization 

 Broyden mixing:
  rms(total) = 0.10215E+01    rms(broyden)= 0.10214E+01
  rms(prec ) = 0.19553E+01
  weight for this iteration     100.00

 eigenvalues of (default mixing * dielectric matrix)
  average eigenvalue GAMMA=   1.3090
  1.3090

 Free energy of the ion-electron system (eV)
  ---------------------------------------------------
  alpha Z        PSCENC =       166.69949767
  Ewald energy   TEWEN  =     -2277.25163274
  -Hartree energ DENC   =      -679.61228923
  -exchange      EXHF   =         0.00000000
  -V(xc)+E(xc)   XCENC  =       137.36479683
  PAW double counting   =      4694.55227057    -4700.42431848
  entropy T*S    EENTRO =         0.00707829
  eigenvalues    EBANDS =      -335.67373723
  atomic energy  EATOM  =      2952.05274943
  ---------------------------------------------------
  free energy    TOTEN  =       -42.28558488 eV

  energy without entropy =      -42.29266316  energy(sigma->0) =      -42.28794431


--------------------------------------------------------------------------------------------------------




----------------------------------------- Iteration    1(   3)  ---------------------------------------


    POTLOK:  cpu time    0.00: real time    0.00
    SETDIJ:  cpu time    0.00: real time    0.00
     EDDAV:  cpu time    0.22: real time    0.22
       DOS:  cpu time    0.00: real time    0.00
    CHARGE:  cpu time    0.00: real time    0.00
    MIXING:  cpu time    0.00: real time    0.00
    --------------------------------------------
      LOOP:  cpu time    0.23: real time    0.23

 eigenvalue-minimisations  :  1298
 total energy-change (2. order) : 0.2203193E+01  (-0.1002417E+01)
 number of electron      35.9999983 magnetization 
 augmentation part       11.1038945 magnetization 

 Broyden mixing:
  rms(total) = 0.46598E+00    rms(broyden)= 0.46595E+00
  rms(prec ) = 0.58337E+00
  weight for this iteration     100.00

 eigenvalues of (default mixing * dielectric matrix)
  average eigenvalue GAMMA=   1.4265
  1.4265  1.4265

 Free energy of the ion-electron system (eV)
  ---------------------------------------------------
  alpha Z        PSCENC =       166.69949767
  Ewald energy   TEWEN  =     -2277.25163274
  -Hartree energ DENC   =      -684.66846942
  -exchange      EXHF   =         0.00000000
  -V(xc)+E(xc)   XCENC  =       137.65648510
  PAW double counting   =      3948.86859992    -3955.20189615
  entropy T*S    EENTRO =         0.00701361
  eigenvalues    EBANDS =      -328.24473892
  atomic energy  EATOM  =      2952.05274943
  ---------------------------------------------------
  free energy    TOTEN  =       -40.08239151 eV

  energy without entropy =      -40.08940511  energy(sigma->0) =      -40.08472938


--------------------------------------------------------------------------------------------------------




----------------------------------------- Iteration    1(   4)  ---------------------------------------


    POTLOK:  cpu time    0.00: real time    0.00
    SETDIJ:  cpu time    0.00: real time    0.00
     EDDAV:  cpu time    0.21: real time    0.21
       DOS:  cpu time    0.00: real time    0.00
    CHARGE:  cpu time    0.01: real time    0.01
    MIXING:  cpu time    0.00: real time    0.00
    --------------------------------------------
      LOOP:  cpu time    0.22: real time    0.22

 eigenvalue-minimisations  :  1276
 total energy-change (2. order) : 0.8311691E-02  (-0.7875720E-01)
 number of electron      35.9999981 magnetization 
 augmentation part       11.1273649 magnetization 

 Broyden mixing:
  rms(total) = 0.24145E+00    rms(broyden)= 0.24144E+00
  rms(prec ) = 0.30079E+00
  weight for this iteration     100.00

 eigenvalues of (default mixing * dielectric matrix)
  average eigenvalue GAMMA=   1.4967
  2.1077  0.8434  1.5388

 Free energy of the ion-electron system (eV)
  ---------------------------------------------------
  alpha Z        PSCENC =       166.69949767
  Ewald energy   TEWEN  =     -2277.25163274
  -Hartree energ DENC   =      -683.99676402
  -exchange      EXHF   =         0.00000000
  -V(xc)+E(xc)   XCENC  =       137.66241859
  PAW double counting   =      3712.80083619    -3719.34367765
  entropy T*S    EENTRO =         0.00700145
  eigenvalues    EBANDS =      -328.70450874
  atomic energy  EATOM  =      2952.05274943
  ---------------------------------------------------
  free energy    TOTEN  =       -40.07407981 eV

  energy without entropy =      -40.08108127  energy(sigma->0) =      -40.07641363


--------------------------------------------------------------------------------------------------------




----------------------------------------- Iteration    1(   5)  ---------------------------------------


    POTLOK:  cpu time    0.00: real time    0.00
    SETDIJ:  cpu time    0.00: real time    0.00
     EDDAV:  cpu time    0.19: real time    0.19
       DOS:  cpu time    0.00: real time    0.00
    CHARGE:  cpu time    0.01: real time    0.01
    MIXING:  cpu time    0.00: real time    0.00
    --------------------------------------------
      LOOP:  cpu time    0.20: real time    0.20

 eigenvalue-minimisations  :  1254
 total energy-change (2. order) : 0.7769817E-02  (-0.1191522E-01)
 number of electron      35.9999982 magnetization 
 augmentation part       11.1074638 magnetization 

 Broyden mixing:
  rms(total) = 0.91934E-01    rms(broyden)= 0.91927E-01
  rms(prec ) = 0.12281E+00
  weight for this iteration     100.00

 eigenvalues of (default mixing * dielectric matrix)
  average eigenvalue GAMMA=   1.4528
  2.5169  1.3913  1.2259  0.6772

 Free energy of the ion-electron system (eV)
  ---------------------------------------------------
  alpha Z        PSCENC =       166.69949767
  Ewald energy   TEWEN  =     -2277.25163274
  -Hartree energ DENC   =      -683.54896012
  -exchange      EXHF   =         0.00000000
  -V(xc)+E(xc)   XCENC  =       137.60328775
  PAW double counting   =      3574.11386179    -3580.66859726
  entropy T*S    EENTRO =         0.00697540
  eigenvalues    EBANDS =      -329.07349193
  atomic energy  EATOM  =      2952.05274943
  ---------------------------------------------------
  free energy    TOTEN  =       -40.06631000 eV

  energy without entropy =      -40.07328540  energy(sigma->0) =      -40.06863513


--------------------------------------------------------------------------------------------------------




----------------------------------------- Iteration    1(   6)  ---------------------------------------


    POTLOK:  cpu time    0.00: real time    0.00
    SETDIJ:  cpu time    0.00: real time    0.00
     EDDAV:  cpu time    0.25: real time    0.25
       DOS:  cpu time    0.00: real time    0.00
    CHARGE:  cpu time    0.01: real time    0.01
    MIXING:  cpu time    0.00: real time    0.00
    --------------------------------------------
      LOOP:  cpu time    0.26: real time    0.26

 eigenvalue-minimisations  :  1474
 total energy-change (2. order) : 0.1630117E-02  (-0.2287080E-02)
 number of electron      35.9999982 magnetization 
 augmentation part       11.1151848 magnetization 

 Broyden mixing:
  rms(total) = 0.21199E-01    rms(broyden)= 0.21196E-01
  rms(prec ) = 0.35093E-01
  weight for this iteration     100.00

 eigenvalues of (default mixing * dielectric matrix)
  average eigenvalue GAMMA=   1.4284
  2.4525  1.6743  1.3881  1.0151  0.6121

 Free energy of the ion-electron system (eV)
  ---------------------------------------------------
  alpha Z        PSCENC =       166.69949767
  Ewald energy   TEWEN  =     -2277.25163274
  -Hartree energ DENC   =      -683.72862194
  -exchange      EXHF   =         0.00000000
  -V(xc)+E(xc)   XCENC  =       137.63016794
  PAW double counting   =      3505.80656074    -3512.40747839
  entropy T*S    EENTRO =         0.00698410
  eigenvalues    EBANDS =      -328.87290670
  atomic energy  EATOM  =      2952.05274943
  ---------------------------------------------------
  free energy    TOTEN  =       -40.06467988 eV

  energy without entropy =      -40.07166398  energy(sigma->0) =      -40.06700791


--------------------------------------------------------------------------------------------------------




----------------------------------------- Iteration    1(   7)  ---------------------------------------


    POTLOK:  cpu time    0.00: real time    0.00
    SETDIJ:  cpu time    0.00: real time    0.00
     EDDAV:  cpu time    0.18: real time    0.18
       DOS:  cpu time    0.00: real time    0.00
    CHARGE:  cpu time    0.01: real time    0.01
    MIXING:  cpu time    0.00: real time    0.00
    --------------------------------------------
      LOOP:  cpu time    0.19: real time    0.19

 eigenvalue-minimisations  :  1188
 total energy-change (2. order) : 0.4109872E-03  (-0.1720534E-03)
 number of electron      35.9999982 magnetization 
 augmentation part       11.1132136 magnetization 

 Broyden mixing:
  rms(total) = 0.40530E-02    rms(broyden)= 0.40519E-02
  rms(prec ) = 0.62330E-02
  weight for this iteration     100.00

 eigenvalues of (default mixing * dielectric matrix)
  average eigenvalue GAMMA=   1.4171
  2.5361  1.8835  1.3818  1.0419  1.0419  0.6171

 Free energy of the ion-electron system (eV)
  ---------------------------------------------------
  alpha Z        PSCENC =       166.69949767
  Ewald energy   TEWEN  =     -2277.25163274
  -Hartree energ DENC   =      -683.75825574
  -exchange      EXHF   =         0.00000000
  -V(xc)+E(xc)   XCENC  =       137.62793593
  PAW double counting   =      3499.49065345    -3506.07694054
  entropy T*S    EENTRO =         0.00698557
  eigenvalues    EBANDS =      -328.85526192
  atomic energy  EATOM  =      2952.05274943
  ---------------------------------------------------
  free energy    TOTEN  =       -40.06426889 eV

  energy without entropy =      -40.07125446  energy(sigma->0) =      -40.06659742


--------------------------------------------------------------------------------------------------------




----------------------------------------- Iteration    1(   8)  ---------------------------------------


    POTLOK:  cpu time    0.00: real time    0.00
    SETDIJ:  cpu time    0.00: real time    0.00
     EDDAV:  cpu time    0.14: real time    0.14
       DOS:  cpu time    0.00: real time    0.00
    --------------------------------------------
      LOOP:  cpu time    0.14: real time    0.14

 eigenvalue-minimisations  :   924
 total energy-change (2. order) :-0.1572349E-04  (-0.1739351E-04)
 number of electron      35.9999982 magnetization 
 augmentation part       11.1132136 magnetization 

 Free energy of the ion-electron system (eV)
  ---------------------------------------------------
  alpha Z        PSCENC =       166.69949767
  Ewald energy   TEWEN  =     -2277.25163274
  -Hartree energ DENC   =      -683.73283019
  -exchange      EXHF   =         0.00000000
  -V(xc)+E(xc)   XCENC  =       137.62628578
  PAW double counting   =      3497.97364523    -3504.55785332
  entropy T*S    EENTRO =         0.00698512
  eigenvalues    EBANDS =      -328.88113159
  atomic energy  EATOM  =      2952.05274943
  ---------------------------------------------------
  free energy    TOTEN  =       -40.06428462 eV

  energy without entropy =      -40.07126974  energy(sigma->0) =      -40.06661299


--------------------------------------------------------------------------------------------------------




 average (electrostatic) potential at core
  the test charge radii are     1.0397  1.2658  0.7215
  (the norm of the test charge is              1.0000)
       1 -53.1432       2 -45.6186       3 -70.0881       4 -70.0881       5 -70.0881
 
 
 
 E-fermi :   3.6967     XC(G=0): -11.0110     alpha+bet :-13.2781


 k-point     1 :       0.0000    0.0000    0.0000
  band No.  band energies     occupation 
      1     -29.0326      2.00000
      2     -29.0322      2.00000
      3     -29.0322      2.00000
      4     -16.5886      2.00000
      5     -16.5872      2.00000
      6     -16.5872      2.00000
      7     -13.8697      2.00000
      8     -12.7730      2.00000
      9     -12.7730      2.00000
     10       0.6534      2.00000
     11       0.6534      2.00000
     12       0.6553      2.00000
     13       2.5740      2.00000
     14       2.5740      2.00000
     15       2.5809      2.00000
     16       3.2923      2.01489
     17       3.2923      2.01489
     18       3.2934      2.01515
     19       5.5745     -0.00000
     20       5.5786     -0.00000
     21       5.5786     -0.00000
     22       8.0536     -0.00000

 k-point     2 :       0.2000    0.0000    0.0000
  band No.  band energies     occupation 
      1     -29.0587      2.00000
      2     -29.0314      2.00000
      3     -29.0311      2.00000
      4     -16.6722      2.00000
      5     -16.5842      2.00000
      6     -16.5834      2.00000
      7     -13.6503      2.00000
      8     -12.7633      2.00000
      9     -12.6674      2.00000
     10       0.2287      2.00000
     11       0.6776      2.00000
     12       0.6792      2.00000
     13       2.0886      2.00000
     14       2.0908      2.00000
     15       2.2329      2.00000
     16       2.2736      2.00000
     17       3.1352      2.00053
     18       3.1360      2.00054
     19       5.6356     -0.00000
     20       6.3543     -0.00000
     21       6.3571     -0.00000
     22       8.0784     -0.00000

 k-point     3 :       0.4000    0.0000    0.0000
  band No.  band energies     occupation 
      1     -29.1008      2.00000
      2     -29.0296      2.00000
      3     -29.0293      2.00000
      4     -16.7972      2.00000
      5     -16.5783      2.00000
      6     -16.5773      2.00000
      7     -13.2964      2.00000
      8     -12.7417      2.00000
      9     -12.4798      2.00000
     10      -0.5480      2.00000
     11       0.8253      2.00000
     12       0.8264      2.00000
     13       1.1508      2.00000
     14       1.3468      2.00000
     15       1.3481      2.00000
     16       1.8716      2.00000
     17       3.0237      2.00002
     18       3.0256      2.00002
     19       5.7362     -0.00000
     20       7.3718     -0.00000
     21       7.3740     -0.00000
     22       8.0910     -0.00000

 k-point     4 :       0.2000    0.2000    0.0000
  band No.  band energies     occupation 
      1     -29.0578      2.00000
      2     -29.0576      2.00000
      3     -29.0302      2.00000
      4     -16.6774      2.00000
      5     -16.6332      2.00000
      6     -16.5798      2.00000
      7     -13.4642      2.00000
      8     -12.7060      2.00000
      9     -12.6096      2.00000
     10       0.0133      2.00000
     11       0.4227      2.00000
     12       0.6962      2.00000
     13       1.1506      2.00000
     14       1.8087      2.00000
     15       2.1872      2.00000
     16       2.3568      2.00000
     17       2.8140      2.00000
     18       2.8224      2.00000
     19       6.3094     -0.00000
     20       6.4597     -0.00000
     21       6.6699     -0.00000
     22       8.5542     -0.00000

 k-point     5 :       0.4000    0.2000    0.0000
  band No.  band energies     occupation 
      1     -29.1000      2.00000
      2     -29.0561      2.00000
      3     -29.0285      2.00000
      4     -16.7649      2.00000
      5     -16.6281      2.00000
      6     -16.5733      2.00000
      7     -13.1876      2.00000
      8     -12.6537      2.00000
      9     -12.4286      2.00000
     10      -0.5739      2.00000
     11      -0.0594      2.00000
     12       0.5169      2.00000
     13       0.8190      2.00000
     14       1.2337      2.00000
     15       1.6106      2.00000
     16       2.2977      2.00000
     17       2.5869      2.00000
     18       2.8201      2.00000
     19       6.4376     -0.00000
     20       7.3769     -0.00000
     21       7.4168     -0.00000
     22       8.6949     -0.00000

 k-point     6 :      -0.4000    0.2000    0.0000
  band No.  band energies     occupation 
      1     -29.1000      2.00000
      2     -29.0561      2.00000
      3     -29.0285      2.00000
      4     -16.7648      2.00000
      5     -16.6282      2.00000
      6     -16.5733      2.00000
      7     -13.1877      2.00000
      8     -12.6537      2.00000
      9     -12.4287      2.00000
     10      -0.5735      2.00000
     11      -0.0594      2.00000
     12       0.5167      2.00000
     13       0.8183      2.00000
     14       1.2345      2.00000
     15       1.6114      2.00000
     16       2.2980      2.00000
     17       2.5869      2.00000
     18       2.8195      2.00000
     19       6.4375     -0.00000
     20       7.3767     -0.00000
     21       7.4173     -0.00000
     22       8.6949     -0.00000

 k-point     7 :      -0.2000    0.2000    0.0000
  band No.  band energies     occupation 
      1     -29.0579      2.00000
      2     -29.0575      2.00000
      3     -29.0302      2.00000
      4     -16.6770      2.00000
      5     -16.6335      2.00000
      6     -16.5798      2.00000
      7     -13.4642      2.00000
      8     -12.7060      2.00000
      9     -12.6098      2.00000
     10       0.0135      2.00000
     11       0.4233      2.00000
     12       0.6958      2.00000
     13       1.1510      2.00000
     14       1.8093      2.00000
     15       2.1883      2.00000
     16       2.3572      2.00000
     17       2.8139      2.00000
     18       2.8205      2.00000
     19       6.3097     -0.00000
     20       6.4590     -0.00000
     21       6.6710     -0.00000
     22       8.5542     -0.00000

 k-point     8 :       0.4000    0.4000    0.0000
  band No.  band energies     occupation 
      1     -29.0987      2.00000
      2     -29.0985      2.00000
      3     -29.0268      2.00000
      4     -16.7181      2.00000
      5     -16.7019      2.00000
      6     -16.5662      2.00000
      7     -13.1149      2.00000
      8     -12.3893      2.00000
      9     -12.3333      2.00000
     10      -0.9069      2.00000
     11      -0.6132      2.00000
     12      -0.4007      2.00000
     13       0.8452      2.00000
     14       1.0013      2.00000
     15       1.7730      2.00000
     16       1.8540      2.00000
     17       2.1339      2.00000
     18       3.4835      2.06138
     19       7.3622     -0.00000
     20       7.4067     -0.00000
     21       7.7644     -0.00000
     22       9.0124     -0.00000

 k-point     9 :      -0.4000    0.4000    0.0000
  band No.  band energies     occupation 
      1     -29.0988      2.00000
      2     -29.0984      2.00000
      3     -29.0268      2.00000
      4     -16.7177      2.00000
      5     -16.7022      2.00000
      6     -16.5662      2.00000
      7     -13.1150      2.00000
      8     -12.3890      2.00000
      9     -12.3336      2.00000
     10      -0.9062      2.00000
     11      -0.6140      2.00000
     12      -0.4006      2.00000
     13       0.8439      2.00000
     14       1.0028      2.00000
     15       1.7731      2.00000
     16       1.8546      2.00000
     17       2.1338      2.00000
     18       3.4832      2.06159
     19       7.3620     -0.00000
     20       7.4067     -0.00000
     21       7.7646     -0.00000
     22       9.0125     -0.00000

 k-point    10 :       0.2000    0.2000    0.2000
  band No.  band energies     occupation 
      1     -29.0570      2.00000
      2     -29.0564      2.00000
      3     -29.0564      2.00000
      4     -16.6764      2.00000
      5     -16.6238      2.00000
      6     -16.6238      2.00000
      7     -13.2815      2.00000
      8     -12.6125      2.00000
      9     -12.6125      2.00000
     10      -0.1599      2.00000
     11       0.3926      2.00000
     12       0.3926      2.00000
     13       1.0862      2.00000
     14       1.0862      2.00000
     15       1.4741      2.00000
     16       2.6821      2.00000
     17       2.6821      2.00000
     18       2.9441      2.00000
     19       6.6612     -0.00000
     20       6.7641     -0.00000
     21       6.7641     -0.00000
     22       9.5243      0.00000

 k-point    11 :       0.4000    0.2000    0.2000
  band No.  band energies     occupation 
      1     -29.0990      2.00000
      2     -29.0554      2.00000
      3     -29.0545      2.00000
      4     -16.7383      2.00000
      5     -16.6283      2.00000
      6     -16.6083      2.00000
      7     -13.0170      2.00000
      8     -12.6171      2.00000
      9     -12.4074      2.00000
     10      -0.5928      2.00000
     11      -0.1262      2.00000
     12       0.1930      2.00000
     13       0.3305      2.00000
     14       0.6911      2.00000
     15       1.3871      2.00000
     16       2.5740      2.00000
     17       2.6646      2.00000
     18       2.9815      2.00001
     19       6.8210     -0.00000
     20       7.4539     -0.00000
     21       7.4862     -0.00000
     22       9.6504      0.00000

 k-point    12 :      -0.4000    0.2000    0.2000
  band No.  band energies     occupation 
      1     -29.0990      2.00000
      2     -29.0554      2.00000
      3     -29.0545      2.00000
      4     -16.7380      2.00000
      5     -16.6285      2.00000
      6     -16.6083      2.00000
      7     -13.0172      2.00000
      8     -12.6172      2.00000
      9     -12.4074      2.00000
     10      -0.5924      2.00000
     11      -0.1276      2.00000
     12       0.1944      2.00000
     13       0.3318      2.00000
     14       0.6906      2.00000
     15       1.3875      2.00000
     16       2.5751      2.00000
     17       2.6657      2.00000
     18       2.9793      2.00000
     19       6.8211     -0.00000
     20       7.4532     -0.00000
     21       7.4873     -0.00000
     22       9.6504      0.00000

 k-point    13 :      -0.2000    0.2000    0.2000
  band No.  band energies     occupation 
      1     -29.0569      2.00000
      2     -29.0566      2.00000
      3     -29.0564      2.00000
      4     -16.6758      2.00000
      5     -16.6243      2.00000
      6     -16.6237      2.00000
      7     -13.2818      2.00000
      8     -12.6126      2.00000
      9     -12.6125      2.00000
     10      -0.1614      2.00000
     11       0.3940      2.00000
     12       0.3948      2.00000
     13       1.0864      2.00000
     14       1.0873      2.00000
     15       1.4739      2.00000
     16       2.6841      2.00000
     17       2.6845      2.00000
     18       2.9388      2.00000
     19       6.6608     -0.00000
     20       6.7631     -0.00000
     21       6.7666     -0.00000
     22       9.5095      0.00000

 k-point    14 :       0.4000    0.4000    0.2000
  band No.  band energies     occupation 
      1     -29.0975      2.00000
      2     -29.0972      2.00000
      3     -29.0531      2.00000
      4     -16.6997      2.00000
      5     -16.6853      2.00000
      6     -16.6023      2.00000
      7     -12.8785      2.00000
      8     -12.4048      2.00000
      9     -12.3589      2.00000
     10      -0.7959      2.00000
     11      -0.5771      2.00000
     12      -0.3951      2.00000
     13       0.1129      2.00000
     14       0.2016      2.00000
     15       0.9617      2.00000
     16       2.7165      2.00000
     17       2.7555      2.00000
     18       3.5152      2.02542
     19       7.5315     -0.00000
     20       7.5684     -0.00000
     21       7.8396     -0.00000
     22       9.7760      0.00000

 k-point    15 :      -0.4000    0.4000    0.2000
  band No.  band energies     occupation 
      1     -29.0974      2.00000
      2     -29.0972      2.00000
      3     -29.0531      2.00000
      4     -16.6992      2.00000
      5     -16.6857      2.00000
      6     -16.6024      2.00000
      7     -12.8789      2.00000
      8     -12.4048      2.00000
      9     -12.3587      2.00000
     10      -0.7954      2.00000
     11      -0.5776      2.00000
     12      -0.3948      2.00000
     13       0.1121      2.00000
     14       0.2031      2.00000
     15       0.9615      2.00000
     16       2.7179      2.00000
     17       2.7560      2.00000
     18       3.5141      2.02713
     19       7.5310     -0.00000
     20       7.5685     -0.00000
     21       7.8399     -0.00000
     22       9.7722      0.00000

 k-point    16 :      -0.2000    0.4000    0.2000
  band No.  band energies     occupation 
      1     -29.0990      2.00000
      2     -29.0551      2.00000
      3     -29.0548      2.00000
      4     -16.7381      2.00000
      5     -16.6280      2.00000
      6     -16.6087      2.00000
      7     -13.0176      2.00000
      8     -12.6166      2.00000
      9     -12.4076      2.00000
     10      -0.5927      2.00000
     11      -0.1280      2.00000
     12       0.1963      2.00000
     13       0.3317      2.00000
     14       0.6901      2.00000
     15       1.3864      2.00000
     16       2.5767      2.00000
     17       2.6674      2.00000
     18       2.9776      2.00000
     19       6.8201     -0.00000
     20       7.4554     -0.00000
     21       7.4854     -0.00000
     22       9.6496      0.00000

 k-point    17 :      -0.4000   -0.4000    0.2000
  band No.  band energies     occupation 
      1     -29.0975      2.00000
      2     -29.0972      2.00000
      3     -29.0531      2.00000
      4     -16.6995      2.00000
      5     -16.6853      2.00000
      6     -16.6024      2.00000
      7     -12.8791      2.00000
      8     -12.4044      2.00000
      9     -12.3590      2.00000
     10      -0.7960      2.00000
     11      -0.5767      2.00000
     12      -0.3949      2.00000
     13       0.1130      2.00000
     14       0.2021      2.00000
     15       0.9613      2.00000
     16       2.7186      2.00000
     17       2.7561      2.00000
     18       3.5139      2.02758
     19       7.5303     -0.00000
     20       7.5692     -0.00000
     21       7.8397     -0.00000
     22       9.7709      0.00000

 k-point    18 :       0.4000    0.4000    0.4000
  band No.  band energies     occupation 
      1     -29.0958      2.00000
      2     -29.0950      2.00000
      3     -29.0950      2.00000
      4     -16.6716      2.00000
      5     -16.6581      2.00000
      6     -16.6581      2.00000
      7     -12.4955      2.00000
      8     -12.4014      2.00000
      9     -12.4014      2.00000
     10      -0.7392      2.00000
     11      -0.4981      2.00000
     12      -0.4617      2.00000
     13      -0.4617      2.00000
     14      -0.3501      2.00000
     15      -0.3501      2.00000
     16       3.4515      2.07092
     17       3.4515      2.07092
     18       3.6105      1.65994
     19       7.9352     -0.00000
     20       7.9754     -0.00000
     21       7.9754     -0.00000
     22       9.6877      0.00000

 k-point    19 :      -0.4000    0.4000    0.4000
  band No.  band energies     occupation 
      1     -29.0956      2.00000
      2     -29.0952      2.00000
      3     -29.0950      2.00000
      4     -16.6710      2.00000
      5     -16.6586      2.00000
      6     -16.6581      2.00000
      7     -12.4973      2.00000
      8     -12.4015      2.00000
      9     -12.3997      2.00000
     10      -0.7394      2.00000
     11      -0.4996      2.00000
     12      -0.4611      2.00000
     13      -0.4599      2.00000
     14      -0.3505      2.00000
     15      -0.3500      2.00000
     16       3.4527      2.07091
     17       3.4555      2.07081
     18       3.6063      1.68551
     19       7.9338     -0.00000
     20       7.9761     -0.00000
     21       7.9761     -0.00000
     22       9.6648      0.00000


--------------------------------------------------------------------------------------------------------


 soft charge-density along one line, spin component           1
         0         1         2         3         4         5         6         7         8         9
 total charge-density along one line
 
 pseudopotential strength for first ion, spin component:           1
-30.229  -0.000  -0.000   7.097   0.000   0.000   0.002   0.002
 -0.000 -30.229  -0.000   0.000   7.097   0.000   0.000   0.002
 -0.000  -0.000 -30.229   0.000   0.000   7.097   0.002   0.000
  7.097   0.000   0.000   3.760   0.000   0.000  -0.001  -0.001
  0.000   7.097   0.000   0.000   3.760   0.000  -0.000  -0.001
  0.000   0.000   7.097   0.000   0.000   3.760  -0.001  -0.000
  0.002   0.000   0.002  -0.001  -0.000  -0.001  -3.667  -0.000
  0.002   0.002   0.000  -0.001  -0.001  -0.000  -0.000  -3.667
 -0.001   0.001  -0.001   0.000  -0.001   0.000   0.000  -0.000
  0.000   0.002   0.002  -0.000  -0.001  -0.001  -0.000  -0.000
 -0.001  -0.000   0.001   0.000   0.000  -0.000   0.000   0.000
  0.002   0.000   0.002  -0.001  -0.000  -0.001  -3.848  -0.000
  0.002   0.002   0.000  -0.001  -0.001  -0.000  -0.000  -3.848
 -0.001   0.001  -0.001   0.000  -0.001   0.000   0.000  -0.000
  0.000   0.002   0.002  -0.000  -0.001  -0.001  -0.000  -0.000
 -0.001  -0.000   0.001   0.001   0.000  -0.001   0.000   0.000
 -0.001  -0.001  -0.001  -0.000  -0.000  -0.000   0.000   0.000
 -0.002  -0.002  -0.002  -0.000  -0.000  -0.000   0.000   0.000
 total augmentation occupancy for first ion, spin component:           1
  1.975   0.000   0.000  -0.067   0.000   0.000  -0.001  -0.001   0.000  -0.000   0.000   0.001   0.001  -0.000   0.000  -0.000
  0.000   1.975   0.000   0.000  -0.067   0.000  -0.000  -0.001  -0.000  -0.001   0.000   0.000   0.001   0.000   0.001   0.000
  0.000   0.000   1.975   0.000   0.000  -0.067  -0.001  -0.000   0.000  -0.001  -0.000   0.001   0.000  -0.000   0.001   0.000
 -0.067   0.000   0.000   0.339   0.000   0.000  -0.004  -0.004   0.001   0.000   0.001   0.003   0.003  -0.000  -0.000  -0.001
  0.000  -0.067   0.000   0.000   0.339   0.000   0.000  -0.004  -0.001  -0.004  -0.000  -0.000   0.003   0.001   0.003   0.000
  0.000   0.000  -0.067   0.000   0.000   0.339  -0.004   0.000   0.001  -0.004  -0.001   0.003  -0.000  -0.000   0.003   0.001
 -0.001  -0.000  -0.001  -0.004   0.000  -0.004   3.669   0.000  -0.000   0.000   0.000  -2.279  -0.000   0.000  -0.000   0.000
 -0.001  -0.001  -0.000  -0.004  -0.004   0.000   0.000   3.669   0.000   0.000  -0.000  -0.000  -2.279  -0.000  -0.000   0.000
  0.000  -0.000   0.000   0.001  -0.001   0.001  -0.000   0.000  13.343   0.000   0.000   0.000  -0.000  -9.254  -0.000   0.000
 -0.000  -0.001  -0.001   0.000  -0.004  -0.004   0.000   0.000   0.000   3.669   0.000  -0.000  -0.000  -0.000  -2.279  -0.000
  0.000   0.000  -0.000   0.001   0.000  -0.001   0.000  -0.000  -0.000   0.000  13.343   0.000   0.000   0.000  -0.000  -9.254
  0.001   0.000   0.001   0.003  -0.000   0.003  -2.279  -0.000   0.000  -0.000   0.000   1.422   0.000  -0.000   0.000  -0.000
  0.001   0.001   0.000   0.003   0.003  -0.000  -0.000  -2.279  -0.000  -0.000   0.000   0.000   1.422   0.000   0.000  -0.000
 -0.000   0.000  -0.000  -0.000   0.001  -0.000   0.000  -0.000  -9.254  -0.000   0.000  -0.000   0.000   6.487   0.000   0.000
  0.000   0.001   0.001  -0.000   0.003   0.003  -0.000  -0.000  -0.000  -2.279  -0.000   0.000   0.000   0.000   1.422   0.000
 -0.000   0.000   0.000  -0.001   0.000   0.001   0.000   0.000   0.000  -0.000  -9.254   0.000  -0.000   0.000   0.000   6.487
  0.001   0.001   0.001  -0.001  -0.001  -0.001   0.001   0.001  -0.000   0.001   0.000  -0.001  -0.001   0.000  -0.001   0.000
 -0.001  -0.001  -0.001   0.000   0.000   0.000  -0.000  -0.000  -0.000  -0.000   0.000   0.000   0.000   0.000   0.000   0.000


------------------------ aborting loop because EDIFF is reached ----------------------------------------


    CHARGE:  cpu time    0.00: real time    0.00
    FORLOC:  cpu time    0.00: real time    0.00
    FORNL :  cpu time    0.02: real time    0.02
    STRESS:  cpu time    0.23: real time    0.23
    FORCOR:  cpu time    0.00: real time    0.00
    FORHAR:  cpu time    0.00: real time    0.00
    MIXING:  cpu time    0.00: real time    0.00
    OFIELD:  cpu time    0.00: real time    0.00

  FORCE on cell =-STRESS in cart. coord.  units (eV):
  Direction    XX          YY          ZZ          XY          YZ          ZX
  --------------------------------------------------------------------------------------
  Alpha Z   166.69950   166.69950   166.69950
  Ewald    -759.08459  -759.08459  -759.08459     0.25857     0.25857     0.25857
  Hartree   227.91375   227.91375   227.91375     0.10616     0.10616     0.10616
  E(xc)    -170.15438  -170.15438  -170.15438     0.00022     0.00022     0.00022
  Local     -32.86625   -32.86625   -32.86625    -0.35936    -0.35936    -0.35936
  n-local   -90.46338   -88.72631   -84.90976     0.03571    -0.10406     0.08415
  augment   133.03917   133.03917   133.03917     0.00013     0.00013     0.00013
  Kinetic   513.84180   521.14076   528.02310     0.50718    -1.56876     1.09333
  Fock        0.00000     0.00000     0.00000     0.00000     0.00000     0.00000
  -------------------------------------------------------------------------------------
  Total      -1.48407    -1.48407    -1.48407     0.02157     0.02157     0.02157
  in kB     -40.63796   -40.63796   -40.63796     0.59069     0.59069     0.59069
  external pressure =      -40.64 kB  Pullay stress =        0.00 kB


 VOLUME and BASIS-vectors are now :
 -----------------------------------------------------------------------------
  energy-cutoff  :      400.00
  volume of cell :       58.51
      direct lattice vectors                 reciprocal lattice vectors
     3.882200000  0.000000000  0.000000000     0.257585905  0.000000000  0.000000000
     0.000000000  3.882200000  0.000000000     0.000000000  0.257585905  0.000000000
     0.000000000  0.000000000  3.882200000     0.000000000  0.000000000  0.257585905

  length of vectors
     3.882200000  3.882200000  3.882200000     0.257585905  0.257585905  0.257585905


 FORCES acting on ions
    electron-ion (+dipol)            ewald-force                    non-local-force                 convergence-correction
 -----------------------------------------------------------------------------------------------
   -.306E+01 -.306E+01 -.306E+01   0.321E+01 0.321E+01 0.321E+01   -.468E-01 -.468E-01 -.468E-01   -.376E-02 -.376E-02 -.376E-02
   0.906E+01 0.906E+01 0.906E+01   -.897E+01 -.897E+01 -.897E+01   -.110E+00 -.110E+00 -.110E+00   -.709E-02 -.709E-02 -.709E-02
   0.193E+01 -.355E+01 -.355E+01   -.206E+01 0.391E+01 0.391E+01   0.172E+00 -.399E+00 -.399E+00   -.424E-02 -.707E-02 -.707E-02
   -.355E+01 0.193E+01 -.355E+01   0.391E+01 -.206E+01 0.391E+01   -.399E+00 0.172E+00 -.399E+00   -.707E-02 -.424E-02 -.707E-02
   -.355E+01 -.355E+01 0.193E+01   0.391E+01 0.391E+01 -.206E+01   -.399E+00 -.399E+00 0.172E+00   -.707E-02 -.707E-02 -.424E-02
 -----------------------------------------------------------------------------------------------
   0.819E+00 0.819E+00 0.819E+00   0.000E+00 0.444E-15 0.178E-14   -.784E+00 -.784E+00 -.784E+00   -.292E-01 -.292E-01 -.292E-01
 
 
 POSITION                                       TOTAL-FORCE (eV/Angst)
 -----------------------------------------------------------------------------------
      0.00000      0.00000      0.00000         0.091482      0.091482      0.091482
      1.97992      1.97992      1.97992        -0.033807     -0.033807     -0.033807
      1.94110      0.00000      0.00000         0.039441     -0.048558     -0.048558
      0.00000      1.94110      0.00000        -0.048558      0.039441     -0.048558
      0.00000      0.00000      1.94110        -0.048558     -0.048558      0.039441
 -----------------------------------------------------------------------------------
    total drift:                                0.005302      0.005302      0.005307


--------------------------------------------------------------------------------------------------------



  FREE ENERGIE OF THE ION-ELECTRON SYSTEM (eV)
  ---------------------------------------------------
  free  energy   TOTEN  =       -40.06428462 eV

  energy  without entropy=      -40.07126974  energy(sigma->0) =      -40.06661299
 


--------------------------------------------------------------------------------------------------------


    POTLOK:  cpu time    0.01: real time    0.01


--------------------------------------------------------------------------------------------------------


 stress matrix after NEB project (eV)
     -1.48407      0.02157      0.02157
      0.02157     -1.48407      0.02157
      0.02157      0.02157     -1.48407
  FORCES: max atom, RMS     0.158452    0.097314
  FORCE total and by dimension    0.217601    0.091482
  Stress total and by dimension    2.571032    1.484072


--------------------------------------------------------------------------------------------------------


    WAVPRE:  cpu time    0.00: real time    0.00
 FEWALD executed in parallel
    FEWALD:  cpu time    0.00: real time    0.00
    ORTHCH:  cpu time    0.01: real time    0.01
     LOOP+:  cpu time    1.93: real time    1.93


----------------------------------------- Iteration    2(   1)  ---------------------------------------


    POTLOK:  cpu time    0.00: real time    0.00
    SETDIJ:  cpu time    0.00: real time    0.00
     EDDAV:  cpu time    0.17: real time    0.17
       DOS:  cpu time    0.00: real time    0.00
    CHARGE:  cpu time    0.01: real time    0.01
    MIXING:  cpu time    0.00: real time    0.00
    --------------------------------------------
      LOOP:  cpu time    0.18: real time    0.18

 eigenvalue-minimisations  :  1210
 total energy-change (2. order) :-0.2172086E-04  (-0.6242698E-01)
 number of electron      35.9999984 magnetization 
 augmentation part       11.1133162 magnetization 

 Broyden mixing:
  rms(total) = 0.11197E-01    rms(broyden)= 0.11151E-01
  rms(prec ) = 0.27217E-01
  weight for this iteration     100.00

 Free energy of the ion-electron system (eV)
  ---------------------------------------------------
  alpha Z        PSCENC =       166.69949767
  Ewald energy   TEWEN  =     -2277.28062297
  -Hartree energ DENC   =      -683.71100421
  -exchange      EXHF   =         0.00000000
  -V(xc)+E(xc)   XCENC  =       137.62630276
  PAW double counting   =      3498.48993927    -3505.07351063
  entropy T*S    EENTRO =         0.00698298
  eigenvalues    EBANDS =      -328.87462491
  atomic energy  EATOM  =      2952.05274943
  ---------------------------------------------------
  free energy    TOTEN  =       -40.06429061 eV

  energy without entropy =      -40.07127359  energy(sigma->0) =      -40.06661827


--------------------------------------------------------------------------------------------------------




----------------------------------------- Iteration    2(   2)  ---------------------------------------


    POTLOK:  cpu time    0.00: real time    0.00
    SETDIJ:  cpu time    0.00: real time    0.00
     EDDAV:  cpu time    0.10: real time    0.10
       DOS:  cpu time    0.00: real time    0.00
    CHARGE:  cpu time    0.01: real time    0.01
    MIXING:  cpu time    0.00: real time    0.00
    --------------------------------------------
      LOOP:  cpu time    0.11: real time    0.11

 eigenvalue-minimisations  :   836
 total energy-change (2. order) :-0.1936700E-02  (-0.2385288E-02)
 number of electron      35.9999984 magnetization 
 augmentation part       11.1134934 magnetization 

 Broyden mixing:
  rms(total) = 0.46320E-02    rms(broyden)= 0.46237E-02
  rms(prec ) = 0.87722E-02
  weight for this iteration     100.00

 eigenvalues of (default mixing * dielectric matrix)
  average eigenvalue GAMMA=   0.9932
  0.9932

 Free energy of the ion-electron system (eV)
  ---------------------------------------------------
  alpha Z        PSCENC =       166.69949767
  Ewald energy   TEWEN  =     -2277.28062297
  -Hartree energ DENC   =      -683.71400676
  -exchange      EXHF   =         0.00000000
  -V(xc)+E(xc)   XCENC  =       137.62649863
  PAW double counting   =      3498.70327893    -3505.28680058
  entropy T*S    EENTRO =         0.00698303
  eigenvalues    EBANDS =      -328.87380469
  atomic energy  EATOM  =      2952.05274943
  ---------------------------------------------------
  free energy    TOTEN  =       -40.06622731 eV

  energy without entropy =      -40.07321034  energy(sigma->0) =      -40.06855499


--------------------------------------------------------------------------------------------------------




----------------------------------------- Iteration    2(   3)  ---------------------------------------


    POTLOK:  cpu time    0.00: real time    0.00
    SETDIJ:  cpu time    0.00: real time    0.00
     EDDAV:  cpu time    0.23: real time    0.23
       DOS:  cpu time    0.00: real time    0.00
    --------------------------------------------
      LOOP:  cpu time    0.24: real time    0.24

 eigenvalue-minimisations  :  1430
 total energy-change (2. order) :-0.1551539E-04  (-0.5515765E-04)
 number of electron      35.9999984 magnetization 
 augmentation part       11.1134934 magnetization 

 Free energy of the ion-electron system (eV)
  ---------------------------------------------------
  alpha Z        PSCENC =       166.69949767
  Ewald energy   TEWEN  =     -2277.28062297
  -Hartree energ DENC   =      -683.71809430
  -exchange      EXHF   =         0.00000000
  -V(xc)+E(xc)   XCENC  =       137.62664279
  PAW double counting   =      3498.72148185    -3505.30476332
  entropy T*S    EENTRO =         0.00698311
  eigenvalues    EBANDS =      -328.87011708
  atomic energy  EATOM  =      2952.05274943
  ---------------------------------------------------
  free energy    TOTEN  =       -40.06624283 eV

  energy without entropy =      -40.07322594  energy(sigma->0) =      -40.06857053


--------------------------------------------------------------------------------------------------------




 average (electrostatic) potential at core
  the test charge radii are     1.0397  1.2658  0.7215
  (the norm of the test charge is              1.0000)
       1 -53.1427       2 -45.6179       3 -70.0878       4 -70.0878       5 -70.0878
 
 
 
 E-fermi :   3.6968     XC(G=0): -11.0111     alpha+bet :-13.2781


 k-point     1 :       0.0000    0.0000    0.0000
  band No.  band energies     occupation 
      1     -29.0320      2.00000
      2     -29.0317      2.00000
      3     -29.0317      2.00000
      4     -16.5878      2.00000
      5     -16.5866      2.00000
      6     -16.5866      2.00000
      7     -13.8696      2.00000
      8     -12.7727      2.00000
      9     -12.7727      2.00000
     10       0.6534      2.00000
     11       0.6534      2.00000
     12       0.6548      2.00000
     13       2.5735      2.00000
     14       2.5735      2.00000
     15       2.5812      2.00000
     16       3.2919      2.01477
     17       3.2920      2.01479
     18       3.2920      2.01479
     19       5.5783     -0.00000
     20       5.5801     -0.00000
     21       5.5801     -0.00000
     22       8.0547     -0.00000

 k-point     2 :       0.2000    0.0000    0.0000
[...]
     17       2.1896      2.00000
     18       3.3863      2.04620
     19       7.4363     -0.00000
     20       7.4542     -0.00000
     21       7.7844     -0.00000
     22       9.0480      0.00000

 k-point     9 :      -0.4000    0.4000    0.0000
  band No.  band energies     occupation 
      1     -29.0405      2.00000
      2     -29.0355      2.00000
      3     -28.9663      2.00000
      4     -16.5915      2.00000
      5     -16.5559      2.00000
      6     -16.4012      2.00000
      7     -13.1210      2.00000
      8     -12.4481      2.00000
      9     -12.3798      2.00000
     10      -0.9506      2.00000
     11      -0.7006      2.00000
     12      -0.2291      2.00000
     13       0.7087      2.00000
     14       0.9570      2.00000
     15       1.7241      2.00000
     16       1.7789      2.00000
     17       2.1925      2.00000
     18       3.3777      2.05498
     19       7.3776     -0.00000
     20       7.4822     -0.00000
     21       7.8028     -0.00000
     22       9.0399      0.00000

 k-point    10 :       0.2000    0.2000    0.2000
  band No.  band energies     occupation 
      1     -28.9982      2.00000
      2     -28.9982      2.00000
      3     -28.9922      2.00000
      4     -16.5537      2.00000
      5     -16.4663      2.00000
      6     -16.4663      2.00000
      7     -13.2975      2.00000
      8     -12.6389      2.00000
      9     -12.6389      2.00000
     10      -0.1934      2.00000
     11       0.3671      2.00000
     12       0.3671      2.00000
     13       0.9647      2.00000
     14       0.9647      2.00000
     15       1.3436      2.00000
     16       2.5326      2.00000
     17       2.5326      2.00000
     18       2.8888      2.00001
     19       6.8637     -0.00000
     20       6.8640     -0.00000
     21       6.8640     -0.00000
     22       9.6991      0.00000

 k-point    11 :       0.4000    0.2000    0.2000
  band No.  band energies     occupation 
      1     -29.0385      2.00000
      2     -28.9963      2.00000
      3     -28.9925      2.00000
      4     -16.6128      2.00000
      5     -16.4814      2.00000
      6     -16.4461      2.00000
      7     -13.0279      2.00000
      8     -12.6538      2.00000
      9     -12.4517      2.00000
     10      -0.6036      2.00000
     11      -0.1393      2.00000
     12       0.0901      2.00000
     13       0.3029      2.00000
     14       0.7343      2.00000
     15       1.3211      2.00000
     16       2.4770      2.00000
     17       2.4974      2.00000
     18       2.9122      2.00002
     19       6.9551     -0.00000
     20       7.4539     -0.00000
     21       7.5585     -0.00000
     22       9.7161      0.00000

 k-point    12 :      -0.4000    0.2000    0.2000
  band No.  band energies     occupation 
      1     -29.0387      2.00000
      2     -28.9963      2.00000
      3     -28.9923      2.00000
      4     -16.6096      2.00000
      5     -16.4829      2.00000
      6     -16.4454      2.00000
      7     -13.0293      2.00000
      8     -12.6554      2.00000
      9     -12.4535      2.00000
     10      -0.6802      2.00000
     11      -0.2141      2.00000
     12       0.0417      2.00000
     13       0.4289      2.00000
     14       0.8211      2.00000
     15       1.3879      2.00000
     16       2.5186      2.00000
     17       2.5388      2.00000
     18       2.8264      2.00000
     19       6.9325     -0.00000
     20       7.3892     -0.00000
     21       7.5929     -0.00000
     22       9.7248      0.00000

 k-point    13 :      -0.2000    0.2000    0.2000
  band No.  band energies     occupation 
      1     -28.9998      2.00000
      2     -28.9982      2.00000
      3     -28.9906      2.00000
      4     -16.5471      2.00000
      5     -16.4699      2.00000
      6     -16.4652      2.00000
      7     -13.2986      2.00000
      8     -12.6433      2.00000
      9     -12.6415      2.00000
     10      -0.2365      2.00000
     11       0.1661      2.00000
     12       0.2582      2.00000
     13       0.9713      2.00000
     14       1.1828      2.00000
     15       1.6343      2.00000
     16       2.5812      2.00000
     17       2.6775      2.00000
     18       2.7107      2.00000
     19       6.5913     -0.00000
     20       6.9061     -0.00000
     21       6.9360     -0.00000
     22       9.4010      0.00000

 k-point    14 :       0.4000    0.4000    0.2000
  band No.  band energies     occupation 
      1     -29.0387      2.00000
      2     -29.0347      2.00000
      3     -28.9924      2.00000
      4     -16.5779      2.00000
      5     -16.5343      2.00000
      6     -16.4425      2.00000
      7     -12.8935      2.00000
      8     -12.4622      2.00000
      9     -12.4008      2.00000
     10      -0.8170      2.00000
     11      -0.5842      2.00000
     12      -0.3113      2.00000
     13       0.0456      2.00000
     14       0.1554      2.00000
     15       1.0378      2.00000
     16       2.5643      2.00000
     17       2.6711      2.00000
     18       3.4193      1.98837
     19       7.5510     -0.00000
     20       7.6005     -0.00000
     21       7.8492     -0.00000
     22       9.7807      0.00000

 k-point    15 :      -0.4000    0.4000    0.2000
  band No.  band energies     occupation 
      1     -29.0393      2.00000
      2     -29.0343      2.00000
      3     -28.9923      2.00000
      4     -16.5736      2.00000
      5     -16.5363      2.00000
      6     -16.4424      2.00000
      7     -12.8980      2.00000
      8     -12.4565      2.00000
      9     -12.4066      2.00000
     10      -0.8479      2.00000
     11      -0.6848      2.00000
     12      -0.2289      2.00000
     13       0.0266      2.00000
     14       0.1836      2.00000
     15       1.1128      2.00000
     16       2.6364      2.00000
     17       2.6630      2.00000
     18       3.3927      2.03822
     19       7.4833     -0.00000
     20       7.6085     -0.00000
     21       7.8689     -0.00000
     22       9.6566      0.00000

 k-point    16 :      -0.2000    0.4000    0.2000
  band No.  band energies     occupation 
      1     -29.0385      2.00000
      2     -28.9979      2.00000
      3     -28.9908      2.00000
      4     -16.6094      2.00000
      5     -16.4797      2.00000
      6     -16.4471      2.00000
      7     -13.0342      2.00000
      8     -12.6507      2.00000
      9     -12.4562      2.00000
     10      -0.6355      2.00000
     11      -0.2546      2.00000
     12       0.1015      2.00000
     13       0.3305      2.00000
     14       0.6908      2.00000
     15       1.5293      2.00000
     16       2.5327      2.00000
     17       2.6546      2.00000
     18       2.8001      2.00000
     19       6.8089     -0.00000
     20       7.4397     -0.00000
     21       7.5747     -0.00000
     22       9.6610      0.00000

 k-point    17 :      -0.4000   -0.4000    0.2000
  band No.  band energies     occupation 
      1     -29.0387      2.00000
      2     -29.0349      2.00000
      3     -28.9922      2.00000
      4     -16.5749      2.00000
      5     -16.5337      2.00000
      6     -16.4427      2.00000
      7     -12.8994      2.00000
      8     -12.4612      2.00000
      9     -12.4024      2.00000
     10      -0.8156      2.00000
     11      -0.6238      2.00000
     12      -0.3725      2.00000
     13      -0.0289      2.00000
     14       0.2428      2.00000
     15       1.1619      2.00000
     16       2.6603      2.00000
     17       2.6734      2.00000
     18       3.3892      2.04278
     19       7.4470     -0.00000
     20       7.6326     -0.00000
     21       7.8534     -0.00000
     22       9.5962      0.00000

 k-point    18 :       0.4000    0.4000    0.4000
  band No.  band energies     occupation 
      1     -29.0366      2.00000
      2     -29.0366      2.00000
      3     -29.0304      2.00000
      4     -16.5535      2.00000
      5     -16.5026      2.00000
      6     -16.5026      2.00000
      7     -12.5254      2.00000
      8     -12.4522      2.00000
      9     -12.4522      2.00000
     10      -0.8458      2.00000
     11      -0.4889      2.00000
     12      -0.4889      2.00000
     13      -0.3840      2.00000
     14      -0.2508      2.00000
     15      -0.2508      2.00000
     16       3.2801      2.05414
     17       3.2801      2.05414
     18       3.5516      1.25951
     19       7.8373     -0.00000
     20       7.9916     -0.00000
     21       7.9916     -0.00000
     22       9.8065      0.00000

 k-point    19 :      -0.4000    0.4000    0.4000
  band No.  band energies     occupation 
      1     -29.0375      2.00000
      2     -29.0366      2.00000
      3     -29.0295      2.00000
      4     -16.5508      2.00000
      5     -16.5036      2.00000
      6     -16.5022      2.00000
      7     -12.5423      2.00000
      8     -12.4532      2.00000
      9     -12.4383      2.00000
     10      -0.8459      2.00000
     11      -0.6357      2.00000
     12      -0.5379      2.00000
     13      -0.4364      2.00000
     14      -0.1929      2.00000
     15      -0.0391      2.00000
     16       3.3258      2.06990
     17       3.3659      2.06356
     18       3.4561      1.86831
     19       7.8167     -0.00000
     20       7.9845     -0.00000
     21       8.0142     -0.00000
     22       9.5197      0.00000


--------------------------------------------------------------------------------------------------------


 soft charge-density along one line, spin component           1
         0         1         2         3         4         5         6         7         8         9
 total charge-density along one line
 
 pseudopotential strength for first ion, spin component:           1
-30.174  -0.006  -0.006   7.062   0.003   0.003   0.002   0.002
 -0.006 -30.174  -0.006   0.003   7.062   0.003  -0.000   0.002
 -0.006  -0.006 -30.174   0.003   0.003   7.062   0.002  -0.000
  7.062   0.003   0.003   3.777  -0.001  -0.001   0.002   0.002
  0.003   7.062   0.003  -0.001   3.777  -0.001   0.000   0.002
  0.003   0.003   7.062  -0.001  -0.001   3.777   0.002   0.000
  0.002  -0.000   0.002   0.002   0.000   0.002  -3.632  -0.003
  0.002   0.002  -0.000   0.002   0.002   0.000  -0.003  -3.632
  0.006  -0.012   0.006  -0.003   0.007  -0.003   0.003  -0.001
 -0.000   0.002   0.002   0.000   0.002   0.002  -0.003  -0.003
  0.010  -0.000  -0.010  -0.006   0.000   0.006  -0.000   0.002
  0.002  -0.000   0.002   0.002   0.000   0.002  -3.806  -0.004
  0.002   0.002  -0.000   0.002   0.002   0.000  -0.004  -3.806
  0.007  -0.014   0.007  -0.004   0.008  -0.004   0.003  -0.002
 -0.000   0.002   0.002   0.000   0.002   0.002  -0.004  -0.004
  0.012  -0.000  -0.012  -0.007   0.000   0.007  -0.000   0.003
  0.004   0.004   0.004  -0.001  -0.001  -0.001   0.001   0.001
  0.012   0.012   0.012  -0.002  -0.002  -0.002   0.003   0.003
 total augmentation occupancy for first ion, spin component:           1
  1.976  -0.000  -0.000  -0.064  -0.000  -0.000  -0.009  -0.009  -0.030   0.001  -0.051   0.009   0.009   0.026  -0.001   0.044
 -0.000   1.976  -0.000  -0.000  -0.064  -0.000   0.001  -0.009   0.059  -0.009   0.000  -0.001   0.009  -0.051   0.009   0.000
 -0.000  -0.000   1.976  -0.000  -0.000  -0.064  -0.009   0.001  -0.030  -0.009   0.051   0.009  -0.001   0.026   0.009  -0.044
 -0.064  -0.000  -0.000   0.336  -0.006  -0.006  -0.095  -0.095  -0.216   0.006  -0.373   0.067   0.067   0.150  -0.005   0.260
 -0.000  -0.064  -0.000  -0.006   0.336  -0.006   0.006  -0.095   0.431  -0.095  -0.000  -0.005   0.067  -0.301   0.067   0.000
 -0.000  -0.000  -0.064  -0.006  -0.006   0.336  -0.095   0.006  -0.216  -0.095   0.373   0.067  -0.005   0.150   0.067  -0.260
 -0.009   0.001  -0.009  -0.095   0.006  -0.095   4.010   0.009   0.342   0.009   0.000  -2.513  -0.011  -0.249  -0.011   0.000
 -0.009  -0.009   0.001  -0.095  -0.095   0.006   0.009   4.010  -0.171   0.009   0.296  -0.011  -2.513   0.124  -0.011  -0.215
 -0.030   0.059  -0.030  -0.216   0.431  -0.216   0.342  -0.171  13.578  -0.171   0.000  -0.249   0.125  -9.439   0.125  -0.000
  0.001  -0.009  -0.009   0.006  -0.095  -0.095   0.009   0.009  -0.171   4.010  -0.296  -0.011  -0.011   0.124  -2.513   0.215
 -0.051   0.000   0.051  -0.373   0.000   0.373   0.000   0.296  -0.000  -0.296  13.578   0.000  -0.216  -0.000   0.216  -9.439
  0.009  -0.001   0.009   0.067  -0.005   0.067  -2.513  -0.011  -0.249  -0.011  -0.000   1.585   0.011   0.183   0.011   0.000
  0.009   0.009  -0.001   0.067   0.067  -0.005  -0.011  -2.513   0.125  -0.011  -0.216   0.011   1.585  -0.091   0.011   0.158
  0.026  -0.051   0.026   0.150  -0.301   0.150  -0.249   0.124  -9.439   0.124   0.000   0.183  -0.091   6.632  -0.091  -0.000
 -0.001   0.009   0.009  -0.005   0.067   0.067  -0.011  -0.011   0.125  -2.513   0.216   0.011   0.011  -0.091   1.585  -0.158
  0.044   0.000  -0.044   0.260   0.000  -0.260  -0.000  -0.215   0.000   0.215  -9.439   0.000   0.158  -0.000  -0.158   6.632
  0.002   0.002   0.002   0.068   0.068   0.068  -0.130  -0.130  -0.000  -0.130   0.000   0.090   0.090   0.000   0.090   0.000
  0.000   0.000   0.000  -0.001  -0.001  -0.001   0.005   0.005   0.000   0.005  -0.000  -0.003  -0.003   0.000  -0.003   0.000


------------------------ aborting loop because EDIFF is reached ----------------------------------------


    CHARGE:  cpu time    0.00: real time    0.00
    FORLOC:  cpu time    0.00: real time    0.00
    FORNL :  cpu time    0.02: real time    0.02
    STRESS:  cpu time    0.20: real time    0.20
    FORCOR:  cpu time    0.00: real time    0.00
    FORHAR:  cpu time    0.00: real time    0.00
    MIXING:  cpu time    0.00: real time    0.00
    OFIELD:  cpu time    0.00: real time    0.00

  FORCE on cell =-STRESS in cart. coord.  units (eV):
  Direction    XX          YY          ZZ          XY          YZ          ZX
  --------------------------------------------------------------------------------------
  Alpha Z   166.69950   166.69950   166.69950
  Ewald    -756.22508  -756.22508  -756.22508    -3.19529    -3.19529    -3.19529
  Hartree   230.84704   230.84704   230.84704    -1.56885    -1.56885    -1.56885
  E(xc)    -170.36659  -170.36659  -170.36659    -0.00804    -0.00804    -0.00804
  Local     -38.15486   -38.15486   -38.15486     4.77437     4.77437     4.77437
  n-local   -89.96991   -88.75427   -85.84375     0.08196    -0.13424     0.07331
  augment   132.81113   132.81113   132.81113    -0.02488    -0.02488    -0.02488
  Kinetic   515.38489   521.83512   528.17914     1.09838    -1.34156     1.22041
  Fock        0.00000     0.00000     0.00000     0.00000     0.00000     0.00000
  -------------------------------------------------------------------------------------
  Total      -0.77846    -0.77846    -0.77846     0.31007     0.31007     0.31007
  in kB     -21.31641   -21.31641   -21.31641     8.49064     8.49064     8.49064
  external pressure =      -21.32 kB  Pullay stress =        0.00 kB


 VOLUME and BASIS-vectors are now :
 -----------------------------------------------------------------------------
  energy-cutoff  :      400.00
  volume of cell :       58.51
      direct lattice vectors                 reciprocal lattice vectors
     3.882200000  0.000000000  0.000000000     0.257585905  0.000000000  0.000000000
     0.000000000  3.882200000  0.000000000     0.000000000  0.257585905  0.000000000
     0.000000000  0.000000000  3.882200000     0.000000000  0.000000000  0.257585905

  length of vectors
     3.882200000  3.882200000  3.882200000     0.257585905  0.257585905  0.257585905


 FORCES acting on ions
    electron-ion (+dipol)            ewald-force                    non-local-force                 convergence-correction
 -----------------------------------------------------------------------------------------------
   -.421E+01 -.421E+01 -.421E+01   0.409E+01 0.409E+01 0.409E+01   0.162E+00 0.162E+00 0.162E+00   -.413E-01 -.413E-01 -.413E-01
   0.389E+02 0.389E+02 0.389E+02   -.383E+02 -.383E+02 -.383E+02   -.627E+00 -.627E+00 -.627E+00   -.381E-03 -.381E-03 -.381E-03
   -.214E+02 -.456E+01 -.456E+01   0.252E+02 0.450E+01 0.450E+01   -.372E+01 0.317E-01 0.317E-01   -.171E-01 0.162E-01 0.162E-01
   -.456E+01 -.214E+02 -.456E+01   0.450E+01 0.252E+02 0.450E+01   0.317E-01 -.372E+01 0.317E-01   0.162E-01 -.171E-01 0.162E-01
   -.456E+01 -.456E+01 -.214E+02   0.450E+01 0.450E+01 0.252E+02   0.317E-01 0.317E-01 -.372E+01   0.162E-01 0.162E-01 -.171E-01
 -----------------------------------------------------------------------------------------------
   0.414E+01 0.414E+01 0.414E+01   -.711E-14 0.888E-14 0.355E-14   -.413E+01 -.413E+01 -.413E+01   -.263E-01 -.263E-01 -.263E-01
 
 
 POSITION                                       TOTAL-FORCE (eV/Angst)
 -----------------------------------------------------------------------------------
      0.05345      0.05345      0.05345         0.002253      0.002253      0.002253
      2.07517      2.07517      2.07517         0.000812      0.000812      0.000812
      1.91536     -0.06147     -0.06147         0.011273     -0.007169     -0.007169
     -0.06147      1.91536     -0.06147        -0.007169      0.011273     -0.007169
     -0.06147     -0.06147      1.91536        -0.007169     -0.007169      0.011273
 -----------------------------------------------------------------------------------
    total drift:                               -0.007575     -0.007575     -0.007546


--------------------------------------------------------------------------------------------------------



  FREE ENERGIE OF THE ION-ELECTRON SYSTEM (eV)
  ---------------------------------------------------
  free  energy   TOTEN  =       -40.10743696 eV

  energy  without entropy=      -40.11437955  energy(sigma->0) =      -40.10975116
 
 d Force = 0.2540485E-03[-0.270E-04, 0.535E-03]  d Energy = 0.2313766E-03 0.227E-04
 d Force =-0.4634964E+00[-0.472E+00,-0.455E+00]  d Ewald  =-0.4634816E+00-0.147E-04


--------------------------------------------------------------------------------------------------------


    POTLOK:  cpu time    0.00: real time    0.00


--------------------------------------------------------------------------------------------------------


 stress matrix after NEB project (eV)
     -0.77846      0.31007      0.31007
      0.31007     -0.77846      0.31007
      0.31007      0.31007     -0.77846
  FORCES: max atom, RMS     0.015162    0.011890
  FORCE total and by dimension    0.026586    0.011273
  Stress total and by dimension    1.547540    0.778462


--------------------------------------------------------------------------------------------------------


  
 reached required accuracy - stopping structural energy minimisation
 writing wavefunctions
     LOOP+:  cpu time    0.80: real time    0.80
    4ORBIT:  cpu time    0.00: real time    0.00

 total amount of memory used by VASP on root node    40041. kBytes
========================================================================

   base      :      30000. kBytes
   nonl-proj :       8934. kBytes
   fftplans  :        145. kBytes
   grid      :        538. kBytes
   one-center:         77. kBytes
   wavefun   :        347. kBytes
 
  
  
 General timing and accounting informations for this job:
 ========================================================
  
                  Total CPU time used (sec):       18.523
                            User time (sec):       18.254
                          System time (sec):        0.269
                         Elapsed time (sec):       18.532
  
                   Maximum memory used (kb):       62464.
                   Average memory used (kb):           0.
  
                          Minor page faults:        19963
                          Major page faults:            0
                 Voluntary context switches:          122
