    5    5 1024    1
  0.1170210E+02  0.3882200E-09  0.3882200E-09  0.3882200E-09  0.5000000E-15
  1.000000000000000E-004
  CAR 
 unknown system                          
     36     63     22
 
  0.0000000E+00  0.0000000E+00  0.0000000E+00  0.8000000E-02
    1      -28.968150
    2      -28.956660
    3      -28.946876
    4      -16.537341
    5      -16.520537
    6      -16.515577
    7      -13.875173
    8      -12.785507
    9      -12.782399
   10        0.622376
   11        0.624978
   12        0.648221
   13        2.338176
   14        2.362319
   15        2.531259
   16        3.022646
   17        3.086454
   18        3.120071
   19        5.798381
   20        5.907971
   21        5.989780
   22        8.248242
 
  0.2000000E+00  0.0000000E+00  0.0000000E+00  0.1600000E-01
    1      -28.973816
    2      -28.966779
    3      -28.955363
    4      -16.610726
    5      -16.527534
    6      -16.515060
    7      -13.656151
    8      -12.780531
    9      -12.676670
   10        0.201897
   11        0.652592
   12        0.678480
   13        1.816150
   14        1.969538
   15        2.227579
   16        2.308343
   17        2.925403
   18        2.977518
   19        5.999488
   20        6.410629
   21        6.519821
   22        8.323698
 
  0.4000000E+00  0.0000000E+00  0.0000000E+00  0.1600000E-01
    1      -29.015806
    2      -28.965216
    3      -28.953650
    4      -16.742921
    5      -16.520521
    6      -16.506257
    7      -13.301543
    8      -12.766749
    9      -12.493599
   10       -0.544483
   11        0.805350
   12        0.825331
   13        1.034947
   14        1.319009
   15        1.457628
   16        1.807871
   17        2.785971
   18        2.864349
   19        6.078157
   20        7.342292
   21        7.486103
   22        8.319815
 
  0.0000000E+00  0.2000000E+00  0.0000000E+00  0.1600000E-01
    1      -28.983609
    2      -28.966566
    3      -28.945840
    4      -16.615391
    5      -16.525377
    6      -16.511627
    7      -13.654560
    8      -12.776642
    9      -12.681415
   10        0.199024
   11        0.643550
   12        0.667545
   13        1.831584
   14        1.958373
   15        2.200566
   16        2.305751
   17        2.925871
   18        3.010925
   19        5.933535
   20        6.476503
   21        6.546142
   22        8.292993
 
  0.2000000E+00  0.2000000E+00  0.0000000E+00  0.1600000E-01
    1      -28.982669
    2      -28.972770
    3      -28.965081
    4      -16.620355
    5      -16.567072
    6      -16.517903
    7      -13.472177
    8      -12.723116
    9      -12.621294
   10       -0.002718
   11        0.404373
   12        0.686909
   13        1.084308
   14        1.663560
   15        2.004001
   16        2.357359
   17        2.742985
   18        2.812972
   19        6.420441
   20        6.600288
   21        6.789423
   22        8.765855
 
  0.4000000E+00  0.2000000E+00  0.0000000E+00  0.1600000E-01
    1      -29.014986
    2      -28.980983
    3      -28.963641
    4      -16.709501
    5      -16.566115
    6      -16.508345
    7      -13.200169
    8      -12.676262
    9      -12.441943
   10       -0.566164
   11       -0.072532
   12        0.498775
   13        0.818624
   14        1.180247
   15        1.594630
   16        2.117105
   17        2.625716
   18        2.755844
   19        6.579951
   20        7.394561
   21        7.508980
   22        8.868070
 
 -0.4000000E+00  0.2000000E+00  0.0000000E+00  0.1600000E-01
    1      -29.015004
    2      -28.980967
    3      -28.963638
    4      -16.709106
    5      -16.566391
    6      -16.508299
    7      -13.200372
    8      -12.675825
    9      -12.442453
   10       -0.584575
   11       -0.090694
   12        0.542711
   13        0.813860
   14        1.188194
   15        1.601768
   16        2.111461
   17        2.626578
   18        2.753237
   19        6.571789
   20        7.383124
   21        7.517786
   22        8.866223
 
 -0.2000000E+00  0.2000000E+00  0.0000000E+00  0.1600000E-01
    1      -28.982763
    2      -28.972700
    3      -28.965055
    4      -16.618885
    5      -16.568389
    6      -16.517787
    7      -13.472040
    8      -12.722783
    9      -12.622259
   10       -0.020790
   11        0.351018
   12        0.686029
   13        1.173165
   14        1.673615
   15        2.015312
   16        2.333074
   17        2.737119
   18        2.830401
   19        6.372218
   20        6.615599
   21        6.798418
   22        8.761271
 
  0.0000000E+00  0.4000000E+00  0.0000000E+00  0.1600000E-01
    1      -29.025800
    2      -28.964950
    3      -28.944074
    4      -16.745387
    5      -16.517352
    6      -16.504951
    7      -13.296634
    8      -12.760534
    9      -12.501940
   10       -0.570379
   11        0.773983
   12        0.800655
   13        1.074821
   14        1.301705
   15        1.421674
   16        1.806346
   17        2.821982
   18        2.911038
   19        6.012769
   20        7.411664
   21        7.497633
   22        8.292106
 
  0.2000000E+00  0.4000000E+00  0.0000000E+00  0.1600000E-01
    1      -29.024982
    2      -28.971180
    3      -28.963539
    4      -16.711650
    5      -16.562339
    6      -16.508821
    7      -13.198271
    8      -12.667537
    9      -12.450567
   10       -0.589073
   11       -0.084537
   12        0.504618
   13        0.804752
   14        1.179864
   15        1.591006
   16        2.124167
   17        2.659192
   18        2.750088
   19        6.529894
   20        7.449167
   21        7.512130
   22        8.855099
 
  0.4000000E+00  0.4000000E+00  0.0000000E+00  0.1600000E-01
    1      -29.023691
    2      -29.013528
    3      -28.962146
    4      -16.663279
    5      -16.641119
    6      -16.500085
    7      -13.134836
    8      -12.411496
    9      -12.349082
   10       -0.898231
   11       -0.637948
   12       -0.357786
   13        0.807075
   14        0.950744
   15        1.707750
   16        1.844634
   17        2.172587
   18        3.416978
   19        7.422147
   20        7.493539
   21        7.827269
   22        9.061275
 
 -0.4000000E+00  0.4000000E+00  0.0000000E+00  0.1600000E-01
    1      -29.023730
    2      -29.013487
    3      -28.962146
    4      -16.661811
    5      -16.642497
    6      -16.500069
    7      -13.135192
    8      -12.409184
    9      -12.351166
   10       -0.918937
   11       -0.652840
   12       -0.319429
   13        0.798720
   14        0.960524
   15        1.720143
   16        1.833600
   17        2.174235
   18        3.414415
   19        7.407454
   20        7.499190
   21        7.831743
   22        9.059011
 
 -0.2000000E+00  0.4000000E+00  0.0000000E+00  0.1600000E-01
    1      -29.024994
    2      -28.971173
    3      -28.963534
    4      -16.711271
    5      -16.562602
    6      -16.508771
    7      -13.198487
    8      -12.667037
    9      -12.451129
   10       -0.607666
   11       -0.100273
   12        0.546093
   13        0.800345
   14        1.187492
   15        1.597791
   16        2.118756
   17        2.659005
   18        2.748870
   19        6.522227
   20        7.432532
   21        7.525489
   22        8.853601
 
  0.0000000E+00  0.0000000E+00  0.2000000E+00  0.1600000E-01
    1      -28.994532
    2      -28.955719
    3      -28.945816
    4      -16.621704
    5      -16.517678
    6      -16.511594
    7      -13.653254
    8      -12.775649
    9      -12.683288
   10        0.195431
   11        0.638771
   12        0.651824
   13        1.855214
   14        1.936864
   15        2.200285
   16        2.260691
   17        2.968506
   18        3.020016
   19        5.853657
   20        6.542639
   21        6.589144
   22        8.261607
 
  0.2000000E+00  0.0000000E+00  0.2000000E+00  0.1600000E-01
    1      -28.993587
    2      -28.972485
    3      -28.954493
    4      -16.624393
    5      -16.567962
    6      -16.511853
    7      -13.468892
    8      -12.724233
    9      -12.622948
   10        0.002463
   11        0.396511
   12        0.670429
   13        1.067975
   14        1.670975
   15        2.053493
   16        2.338027
   17        2.741097
   18        2.772516
   19        6.431578
   20        6.624401
   21        6.804952
   22        8.738453
 
  0.4000000E+00  0.0000000E+00  0.2000000E+00  0.1600000E-01
    1      -29.014990
    2      -28.991836
    3      -28.952815
    4      -16.709943
    5      -16.569387
    6      -16.503754
    7      -13.191686
    8      -12.683454
    9      -12.443017
   10       -0.563132
   11       -0.077550
   12        0.510611
   13        0.793307
   14        1.175986
   15        1.593425
   16        2.159858
   17        2.561516
   18        2.764475
   19        6.625558
   20        7.387855
   21        7.509281
   22        8.864046
 
 -0.4000000E+00  0.0000000E+00  0.2000000E+00  0.1600000E-01
    1      -29.015028
    2      -28.991799
    3      -28.952814
    4      -16.709367
    5      -16.569735
    6      -16.503731
    7      -13.191937
    8      -12.682871
    9      -12.443815
   10       -0.587356
   11       -0.099376
   12        0.566755
   13        0.786733
   14        1.186524
   15        1.603298
   16        2.154791
   17        2.562465
   18        2.758391
   19        6.615270
   20        7.378080
   21        7.515732
   22        8.860564
 
 -0.2000000E+00  0.0000000E+00  0.2000000E+00  0.1600000E-01
    1      -28.993655
    2      -28.972419
    3      -28.954490
    4      -16.622451
    5      -16.569548
    6      -16.511798
    7      -13.468667
    8      -12.723803
    9      -12.624423
   10       -0.022109
   11        0.330895
   12        0.667470
   13        1.182992
   14        1.683234
   15        2.071473
   16        2.314814
   17        2.727263
   18        2.790240
   19        6.380429
   20        6.641404
   21        6.808565
   22        8.731629
 
  0.0000000E+00  0.2000000E+00  0.2000000E+00  0.1600000E-01
    1      -28.993740
    2      -28.982072
    3      -28.944807
    4      -16.627583
    5      -16.568343
    6      -16.507721
    7      -13.465612
    8      -12.722792
    9      -12.626554
   10        0.010851
   11        0.408562
   12        0.656940
   13        1.026493
   14        1.675293
   15        2.099384
   16        2.323868
   17        2.719270
   18        2.749403
   19        6.487937
   20        6.610955
   21        6.815186
   22        8.714945
 
  0.2000000E+00  0.2000000E+00  0.2000000E+00  0.1600000E-01
    1      -28.992669
    2      -28.981122
    3      -28.971260
    4      -16.625378
    5      -16.557510
    6      -16.557092
    7      -13.287586
    8      -12.633783
    9      -12.624184
   10       -0.153177
   11        0.373121
   12        0.388371
   13        0.997888
   14        1.014760
   15        1.405674
   16        2.578936
   17        2.612244
   18        2.895191
   19        6.784844
   20        6.880796
   21        6.895611
   22        9.589042
 
  0.4000000E+00  0.2000000E+00  0.2000000E+00  0.1600000E-01
    1      -29.013979
    2      -28.990807
    3      -28.979348
    4      -16.683169
    5      -16.572042
    6      -16.538651
    7      -13.026213
    8      -12.645087
    9      -12.419975
   10       -0.580096
   11       -0.119119
   12        0.162803
   13        0.320338
   14        0.694754
   15        1.319740
   16        2.524199
   17        2.558809
   18        2.931755
   19        6.973618
   20        7.474215
   21        7.580002
   22        9.754378
 
 -0.4000000E+00  0.2000000E+00  0.2000000E+00  0.1600000E-01
    1      -29.014067
    2      -28.990764
    3      -28.979309
    4      -16.682072
    5      -16.572674
    6      -16.538447
    7      -13.026887
    8      -12.645586
    9      -12.419978
   10       -0.616156
   11       -0.147497
   12        0.143398
   13        0.374411
   14        0.725710
   15        1.341264
   16        2.542212
   17        2.576014
   18        2.900293
   19        6.965477
   20        7.449342
   21        7.593698
   22        9.760678
 
 -0.2000000E+00  0.2000000E+00  0.2000000E+00  0.1600000E-01
    1      -28.992746
    2      -28.981333
    3      -28.970979
    4      -16.622875
    5      -16.559264
    6      -16.556719
    7      -13.288111
    8      -12.634585
    9      -12.624859
   10       -0.180331
   11        0.310866
   12        0.350650
   13        0.981770
   14        1.087061
   15        1.513591
   16        2.597927
   17        2.682377
   18        2.834404
   19        6.676472
   20        6.908345
   21        6.917153
   22        9.477994
 
  0.0000000E+00  0.4000000E+00  0.2000000E+00  0.1600000E-01
    1      -29.024993
    2      -28.991699
    3      -28.943085
    4      -16.712648
    5      -16.567909
    6      -16.500937
    7      -13.181212
    8      -12.682071
    9      -12.452147
   10       -0.578704
   11       -0.089212
   12        0.513249
   13        0.762483
   14        1.165479
   15        1.591980
   16        2.218364
   17        2.524406
   18        2.764057
   19        6.619929
   20        7.439455
   21        7.510824
   22        8.848620
 
  0.2000000E+00  0.4000000E+00  0.2000000E+00  0.1600000E-01
    1      -29.023980
    2      -28.990582
    3      -28.969659
    4      -16.685404
    5      -16.567328
    6      -16.539870
    7      -13.021763
    8      -12.637185
    9      -12.431032
   10       -0.590648
   11       -0.140796
   12        0.146021
   13        0.316813
   14        0.697494
   15        1.345763
   16        2.521531
   17        2.579334
   18        2.928554
   19        6.939352
   20        7.518912
   21        7.573062
   22        9.741546
 
  0.4000000E+00  0.4000000E+00  0.2000000E+00  0.1600000E-01
    1      -29.022388
    2      -29.012245
    3      -28.988626
    4      -16.646131
    5      -16.624219
    6      -16.537081
    7      -12.899792
    8      -12.425557
    9      -12.374904
   10       -0.788636
   11       -0.594500
   12       -0.344120
   13        0.095671
   14        0.168839
   15        0.974862
   16        2.637884
   17        2.708303
   18        3.450506
   19        7.598039
   20        7.644662
   21        7.898619
   22        9.785064
 
 -0.4000000E+00  0.4000000E+00  0.2000000E+00  0.1600000E-01
    1      -29.022433
    2      -29.012292
    3      -28.988538
    4      -16.643985
    5      -16.625539
    6      -16.537099
    7      -12.901768
    8      -12.424789
    9      -12.375036
   10       -0.812138
   11       -0.624135
   12       -0.309885
   13        0.081510
   14        0.179449
   15        1.006155
   16        2.665894
   17        2.708414
   18        3.441190
   19        7.567984
   20        7.652413
   21        7.904708
   22        9.740960
 
 -0.2000000E+00  0.4000000E+00  0.2000000E+00  0.1600000E-01
    1      -29.023991
    2      -28.990756
    3      -28.969489
    4      -16.684294
    5      -16.566190
    6      -16.540787
    7      -13.025134
    8      -12.634666
    9      -12.432479
   10       -0.605783
   11       -0.179218
   12        0.162776
   13        0.315583
   14        0.659944
   15        1.425965
   16        2.538659
   17        2.655194
   18        2.894408
   19        6.874167
   20        7.523225
   21        7.574046
   22        9.753848
 
  0.0000000E+00 -0.4000000E+00  0.2000000E+00  0.1600000E-01
    1      -29.025039
    2      -28.991654
    3      -28.943084
    4      -16.711594
    5      -16.568474
    6      -16.500933
    7      -13.181599
    8      -12.681032
    9      -12.453802
   10       -0.619724
   11       -0.118734
   12        0.601498
   13        0.750780
   14        1.183305
   15        1.609183
   16        2.214005
   17        2.524370
   18        2.751350
   19        6.604235
   20        7.427360
   21        7.516365
   22        8.841711
 
  0.2000000E+00 -0.4000000E+00  0.2000000E+00  0.1600000E-01
    1      -29.024073
    2      -28.990520
    3      -28.969637
    4      -16.683836
    5      -16.568178
    6      -16.539566
    7      -13.022728
    8      -12.638028
    9      -12.431115
   10       -0.641260
   11       -0.174939
   12        0.123463
   13        0.385790
   14        0.740007
   15        1.375496
   16        2.546496
   17        2.604259
   18        2.882702
   19        6.928471
   20        7.484480
   21        7.591598
   22        9.746782
 
  0.4000000E+00 -0.4000000E+00  0.2000000E+00  0.1600000E-01
    1      -29.022549
    2      -29.012192
    3      -28.988527
    4      -16.643620
    5      -16.625306
    6      -16.537165
    7      -12.903179
    8      -12.423444
    9      -12.375965
   10       -0.814452
   11       -0.629491
   12       -0.316055
   13        0.067675
   14        0.193366
   15        1.024645
   16        2.682036
   17        2.708270
   18        3.436852
   19        7.567099
   20        7.642591
   21        7.905103
   22        9.718198
 
 -0.4000000E+00 -0.4000000E+00  0.2000000E+00  0.1600000E-01
    1      -29.022483
    2      -29.012348
    3      -28.988447
    4      -16.644388
    5      -16.623883
    6      -16.537346
    7      -12.904332
    8      -12.423187
    9      -12.375926
   10       -0.796099
   11       -0.613731
   12       -0.374005
   13        0.048587
   14        0.212703
   15        1.048868
   16        2.700271
   17        2.708552
   18        3.434696
   19        7.543539
   20        7.658513
   21        7.900329
   22        9.688804
 
 -0.2000000E+00 -0.4000000E+00  0.2000000E+00  0.1600000E-01
    1      -29.024046
    2      -28.990690
    3      -28.969504
    4      -16.683599
    5      -16.566500
    6      -16.540694
    7      -13.025487
    8      -12.635177
    9      -12.432587
   10       -0.625540
   11       -0.190949
   12        0.157137
   13        0.333107
   14        0.684158
   15        1.437012
   16        2.549832
   17        2.664501
   18        2.873836
   19        6.869845
   20        7.528175
   21        7.563051
   22        9.742056
 
  0.0000000E+00 -0.2000000E+00  0.2000000E+00  0.1600000E-01
    1      -28.993957
    2      -28.981855
    3      -28.944806
    4      -16.624066
    5      -16.571062
    6      -16.507708
    7      -13.465113
    8      -12.722165
    9      -12.629408
   10       -0.032115
   11        0.303914
   12        0.650024
   13        1.218621
   14        1.694650
   15        2.134897
   16        2.299348
   17        2.708380
   18        2.747887
   19        6.401575
   20        6.654952
   21        6.807347
   22        8.702027
 
  0.2000000E+00 -0.2000000E+00  0.2000000E+00  0.1600000E-01
    1      -28.992964
    2      -28.981028
    3      -28.971070
    4      -16.621571
    5      -16.560337
    6      -16.556359
    7      -13.288338
    8      -12.635118
    9      -12.625295
   10       -0.191490
   11        0.287375
   12        0.337281
   13        0.991823
   14        1.108656
   15        1.551205
   16        2.626937
   17        2.687527
   18        2.805754
   19        6.660093
   20        6.893640
   21        6.925571
   22        9.422821
 
  0.4000000E+00 -0.2000000E+00  0.2000000E+00  0.1600000E-01
    1      -29.013993
    2      -28.991305
    3      -28.978859
    4      -16.681550
    5      -16.570076
    6      -16.540022
    7      -13.032278
    8      -12.640207
    9      -12.422743
   10       -0.594029
   11       -0.177399
   12        0.196560
   13        0.300791
   14        0.631250
   15        1.447022
   16        2.552459
   17        2.674307
   18        2.883161
   19        6.866894
   20        7.493768
   21        7.570454
   22        9.760240
 
 -0.4000000E+00 -0.2000000E+00  0.2000000E+00  0.1600000E-01
    1      -29.014024
    2      -28.991251
    3      -28.978883
    4      -16.681368
    5      -16.570146
    6      -16.540008
    7      -13.032366
    8      -12.640335
    9      -12.422784
   10       -0.599218
   11       -0.180545
   12        0.195476
   13        0.303537
   14        0.639305
   15        1.449926
   16        2.555528
   17        2.676359
   18        2.877768
   19        6.865723
   20        7.495528
   21        7.567097
   22        9.752925
 
 -0.2000000E+00 -0.2000000E+00  0.2000000E+00  0.1600000E-01
    1      -28.993063
    2      -28.980869
    3      -28.971131
    4      -16.621141
    5      -16.560478
    6      -16.556436
    7      -13.288416
    8      -12.635225
    9      -12.625540
   10       -0.195287
   11        0.283844
   12        0.327474
   13        0.999067
   14        1.113281
   15        1.564682
   16        2.640828
   17        2.684685
   18        2.795652
   19        6.656863
   20        6.890718
   21        6.923807
   22        9.404950
 
  0.0000000E+00  0.0000000E+00  0.4000000E+00  0.1600000E-01
    1      -29.036938
    2      -28.953976
    3      -28.944047
    4      -16.748702
    5      -16.510902
    6      -16.504940
    7      -13.292592
    8      -12.756989
    9      -12.507329
   10       -0.598147
   11        0.753398
   12        0.765050
   13        1.112354
   14        1.290576
   15        1.374838
   16        1.801894
   17        2.882120
   18        2.937461
   19        5.941134
   20        7.470500
   21        7.531731
   22        8.262049
 
  0.2000000E+00  0.0000000E+00  0.4000000E+00  0.1600000E-01
    1      -29.036113
    2      -28.970901
    3      -28.952802
    4      -16.714865
    5      -16.561012
    6      -16.504229
    7      -13.188412
    8      -12.668455
    9      -12.457592
   10       -0.610946
   11       -0.100461
   12        0.517867
   13        0.765250
   14        1.171154
   15        1.591864
   16        2.175097
   17        2.627524
   18        2.749598
   19        6.521308
   20        7.487091
   21        7.533838
   22        8.838587
 
  0.4000000E+00  0.0000000E+00  0.4000000E+00  0.1600000E-01
    1      -29.034779
    2      -29.013480
    3      -28.951187
    4      -16.666104
    5      -16.640093
    6      -16.496102
    7      -13.118960
    8      -12.422197
    9      -12.353154
   10       -0.908785
   11       -0.639603
   12       -0.360025
   13        0.778608
   14        0.941309
   15        1.723325
   16        1.845702
   17        2.155586
   18        3.427064
   19        7.425298
   20        7.523667
   21        7.827565
   22        9.084332
 
 -0.4000000E+00  0.0000000E+00  0.4000000E+00  0.1600000E-01
    1      -29.034803
    2      -29.013452
    3      -28.951186
    4      -16.664382
    5      -16.641663
    6      -16.496094
    7      -13.119483
    8      -12.418798
    9      -12.356264
   10       -0.935190
   11       -0.658003
   12       -0.311578
   13        0.767702
   14        0.954281
   15        1.740307
   16        1.832364
   17        2.156435
   18        3.423154
   19        7.411539
   20        7.526714
   21        7.832697
   22        9.080296
 
 -0.2000000E+00  0.0000000E+00  0.4000000E+00  0.1600000E-01
    1      -29.036126
    2      -28.970890
    3      -28.952801
    4      -16.714339
    5      -16.561310
    6      -16.504203
    7      -13.188700
    8      -12.667709
    9      -12.458520
   10       -0.635548
   11       -0.116746
   12        0.568355
   13        0.759438
   14        1.180897
   15        1.600946
   16        2.170327
   17        2.627355
   18        2.745749
   19        6.512203
   20        7.471027
   21        7.545098
   22        8.835882
 
  0.0000000E+00  0.2000000E+00  0.4000000E+00  0.1600000E-01
    1      -29.036113
    2      -28.980666
    3      -28.943081
    4      -16.715411
    5      -16.563265
    6      -16.500992
    7      -13.179832
    8      -12.675771
    9      -12.458128
   10       -0.603500
   11       -0.100934
   12        0.515341
   13        0.748026
   14        1.161541
   15        1.594105
   16        2.226185
   17        2.556490
   18        2.755499
   19        6.565556
   20        7.486294
   21        7.530124
   22        8.836246
 
  0.2000000E+00  0.2000000E+00  0.4000000E+00  0.1600000E-01
    1      -29.035094
    2      -28.979558
    3      -28.969641
    4      -16.688079
    5      -16.562264
    6      -16.540544
    7      -13.016624
    8      -12.632445
    9      -12.439662
   10       -0.607013
   11       -0.159346
   12        0.118591
   13        0.324723
   14        0.716459
   15        1.357564
   16        2.521479
   17        2.582302
   18        2.925707
   19        6.916358
   20        7.551671
   21        7.579181
   22        9.729722
 
  0.4000000E+00  0.2000000E+00  0.4000000E+00  0.1600000E-01
    1      -29.033466
    2      -29.012198
    3      -28.977645
    4      -16.648514
    5      -16.622792
    6      -16.534728
    7      -12.886258
    8      -12.434146
    9      -12.379052
   10       -0.796491
   11       -0.599642
   12       -0.344571
   13        0.073843
   14        0.167175
   15        0.990212
   16        2.635989
   17        2.706660
   18        3.456636
   19        7.588670
   20        7.658441
   21        7.901915
   22        9.774522
 
 -0.4000000E+00  0.2000000E+00  0.4000000E+00  0.1600000E-01
    1      -29.033498
    2      -29.012212
    3      -28.977600
    4      -16.646329
    5      -16.624298
    6      -16.534713
    7      -12.888007
    8      -12.433148
    9      -12.379427
   10       -0.825034
   11       -0.632393
   12       -0.296289
   13        0.064455
   14        0.173682
   15        1.014924
   16        2.662982
   17        2.703919
   18        3.447528
   19        7.563250
   20        7.664146
   21        7.908623
   22        9.733657
 
 -0.2000000E+00  0.2000000E+00  0.4000000E+00  0.1600000E-01
    1      -29.035111
    2      -28.979819
    3      -28.969376
    4      -16.686990
    5      -16.561341
    6      -16.541416
    7      -13.019197
    8      -12.630808
    9      -12.440685
   10       -0.627958
   11       -0.192884
   12        0.129644
   13        0.333509
   14        0.692154
   15        1.423930
   16        2.536475
   17        2.649762
   18        2.890359
   19        6.864187
   20        7.547285
   21        7.586256
   22        9.739706
 
  0.0000000E+00  0.4000000E+00  0.4000000E+00  0.1600000E-01
    1      -29.034968
    2      -29.023168
    3      -28.941424
    4      -16.669457
    5      -16.637978
    6      -16.493638
    7      -13.102300
    8      -12.431600
    9      -12.358448
   10       -0.913396
   11       -0.634175
   12       -0.376398
   13        0.764273
   14        0.920734
   15        1.737789
   16        1.854004
   17        2.140774
   18        3.431993
   19        7.465611
   20        7.517734
   21        7.824184
   22        9.105634
 
  0.2000000E+00  0.4000000E+00  0.4000000E+00  0.1600000E-01
    1      -29.033654
    2      -29.021898
    3      -28.967830
    4      -16.651491
    5      -16.619937
    6      -16.533668
    7      -12.872226
    8      -12.439206
    9      -12.386979
   10       -0.800431
   11       -0.594951
   12       -0.363835
   13        0.058614
   14        0.160925
   15        1.011434
   16        2.640071
   17        2.709150
   18        3.456997
   19        7.591515
   20        7.660732
   21        7.901688
   22        9.759649
 
  0.4000000E+00  0.4000000E+00  0.4000000E+00  0.1600000E-01
    1      -29.031553
    2      -29.019927
    3      -29.010029
    4      -16.622879
    5      -16.596514
    6      -16.589576
    7      -12.507596
    8      -12.435858
    9      -12.417521
   10       -0.766395
   11       -0.495183
   12       -0.479980
   13       -0.473041
   14       -0.321127
   15       -0.277036
   16        3.351582
   17        3.366356
   18        3.563293
   19        7.948241
   20        8.041085
   21        8.052703
   22        9.711399
 
 -0.4000000E+00  0.4000000E+00  0.4000000E+00  0.1600000E-01
    1      -29.031599
    2      -29.020058
    3      -29.009857
    4      -16.621351
    5      -16.597473
    6      -16.589484
    7      -12.516068
    8      -12.435689
    9      -12.410293
   10       -0.781059
   11       -0.573135
   12       -0.500921
   13       -0.473661
   14       -0.291871
   15       -0.186136
   16        3.370433
   17        3.395916
   18        3.529373
   19        7.942756
   20        8.038377
   21        8.061175
   22        9.592477
 
 -0.2000000E+00  0.4000000E+00  0.4000000E+00  0.1600000E-01
    1      -29.033679
    2      -29.021936
    3      -28.967779
    4      -16.650426
    5      -16.619748
    6      -16.533834
    7      -12.875123
    8      -12.437622
    9      -12.387505
   10       -0.803976
   11       -0.608803
   12       -0.383506
   13        0.028294
   14        0.188766
   15        1.059019
   16        2.680185
   17        2.709145
   18        3.447418
   19        7.552963
   20        7.671793
   21        7.905405
   22        9.700364
 
  0.0000000E+00 -0.4000000E+00  0.4000000E+00  0.1600000E-01
    1      -29.035046
    2      -29.023084
    3      -28.941423
    4      -16.666792
    5      -16.640328
    6      -16.493639
    7      -13.103271
    8      -12.425030
    9      -12.364578
   10       -0.956253
   11       -0.664965
   12       -0.296569
   13        0.744133
   14        0.944656
   15        1.767822
   16        1.833413
   17        2.140016
   18        3.424517
   19        7.438623
   20        7.528883
   21        7.831350
   22        9.097089
 
  0.2000000E+00 -0.4000000E+00  0.4000000E+00  0.1600000E-01
    1      -29.033763
    2      -29.021815
    3      -28.967802
    4      -16.648603
    5      -16.621982
    6      -16.533600
    7      -12.874579
    8      -12.436979
    9      -12.388387