    5    5 1024    1
  0.1170210E+02  0.3882200E-09  0.3882200E-09  0.3882200E-09  0.5000000E-15
  1.000000000000000E-004
  CAR 
 unknown system                          
     36     19     22
 
  0.0000000E+00  0.0000000E+00  0.0000000E+00  0.8000000E-02
    1      -28.957422
    2      -28.957422
    3      -28.952747
    4      -16.551516
    5      -16.541625
    6      -16.541625
    7      -13.872688
    8      -12.778458
    9      -12.778458
   10        0.634465
   11        0.634465
   12        0.652563
   13        2.381897
   14        2.381897
   15        2.550798
   16        3.033544
   17        3.122622
   18        3.122622
   19        5.852917
   20        5.852917
   21        5.938414
   22        8.265378
 
  0.2000000E+00  0.0000000E+00  0.0000000E+00  0.4800000E-01
    1      -28.982577
    2      -28.956340
    3      -28.952997
    4      -16.634085
    5      -16.541994
    6      -16.536836
    7      -13.652649
    8      -12.771166
    9      -12.675236
   10        0.207812
   11        0.656556
   12        0.670431
   13        1.859881
   14        1.969853
   15        2.234025
   16        2.288850
   17        2.966318
   18        3.007744
   19        5.916917
   20        6.471822
   21        6.544600
   22        8.284813
 
  0.4000000E+00  0.0000000E+00  0.0000000E+00  0.4800000E-01
    1      -29.024816
    2      -28.954572
    3      -28.951325
    4      -16.762433
    5      -16.535809
    6      -16.529075
    7      -13.295830
    8      -12.753540
    9      -12.495519
   10       -0.562044
   11        0.791646
   12        0.798151
   13        1.081407
   14        1.315789
   15        1.418166
   16        1.813524
   17        2.852936
   18        2.912649
   19        6.002599
   20        7.410273
   21        7.506951
   22        8.284208
 
  0.2000000E+00  0.2000000E+00  0.0000000E+00  0.4800000E-01
    1      -28.983035
    2      -28.979952
    3      -28.953476
    4      -16.641391
    5      -16.588950
    6      -16.534258
    7      -13.467027
    8      -12.716654
    9      -12.618385
   10        0.011582
   11        0.417999
   12        0.679273
   13        1.062145
   14        1.688430
   15        2.063044
   16        2.349998
   17        2.758119
   18        2.776627
   19        6.460964
   20        6.593315
   21        6.797975
   22        8.733695
 
  0.4000000E+00  0.2000000E+00  0.0000000E+00  0.9600000E-01
    1      -29.023999
    2      -28.979807
    3      -28.951812
    4      -16.729473
    5      -16.585370
    6      -16.526711
    7      -13.188287
    8      -12.668225
    9      -12.445028
   10       -0.575516
   11       -0.079833
   12        0.512099
   13        0.788899
   14        1.182382
   15        1.596936
   16        2.178574
   17        2.602086
   18        2.767933
   19        6.573872
   20        7.442557
   21        7.516938
   22        8.847819
 
 -0.4000000E+00  0.2000000E+00  0.0000000E+00  0.9600000E-01
    1      -29.024022
    2      -28.979786
    3      -28.951811
    4      -16.728913
    5      -16.585686
    6      -16.526691
    7      -13.188564
    8      -12.667465
    9      -12.445955
   10       -0.605682
   11       -0.102873
   12        0.577277
   13        0.781294
   14        1.194380
   15        1.607433
   16        2.172692
   17        2.602743
   18        2.762265
   19        6.562612
   20        7.428223
   21        7.526155
   22        8.844146
 
 -0.2000000E+00  0.2000000E+00  0.0000000E+00  0.4800000E-01
    1      -28.983500
    2      -28.979490
    3      -28.953471
    4      -16.639347
    5      -16.590612
    6      -16.534212
    7      -13.466725
    8      -12.716132
    9      -12.620003
   10       -0.018218
   11        0.336948
   12        0.675598
   13        1.201942
   14        1.702563
   15        2.083773
   16        2.323401
   17        2.740312
   18        2.799566
   19        6.389309
   20        6.626568
   21        6.799412
   22        8.725834
 
  0.4000000E+00  0.4000000E+00  0.0000000E+00  0.4800000E-01
    1      -29.024206
    2      -29.020910
    3      -28.950211
    4      -16.683462
    5      -16.659547
    6      -16.518967
    7      -13.115924
    8      -12.414040
    9      -12.348912
   10       -0.902857
   11       -0.626697
   12       -0.364961
   13        0.794825
   14        0.945134
   15        1.727264
   16        1.851829
   17        2.160597
   18        3.436261
   19        7.455879
   20        7.496467
   21        7.825154
   22        9.086678
 
 -0.4000000E+00  0.4000000E+00  0.0000000E+00  0.4800000E-01
    1      -29.024391
    2      -29.020722
    3      -28.950210
    4      -16.681582
    5      -16.661264
    6      -16.518961
    7      -13.116501
    8      -12.409954
    9      -12.352626
   10       -0.935396
   11       -0.649670
   12       -0.305065
   13        0.780828
   14        0.961574
   15        1.747716
   16        1.835171
   17        2.161546
   18        3.431849
   19        7.431600
   20        7.508508
   21        7.830852
   22        9.081750
 
  0.2000000E+00  0.2000000E+00  0.2000000E+00  0.1600000E-01
    1      -28.981853
    2      -28.981853
    3      -28.977230
    4      -16.642153
    5      -16.578798
    6      -16.578798
    7      -13.285704
    8      -12.623041
    9      -12.623041
   10       -0.146682
   11        0.395366
   12        0.395366
   13        1.016936
   14        1.016936
   15        1.398171
   16        2.602877
   17        2.602877
   18        2.912939
   19        6.812218
   20        6.873396
   21        6.873396
   22        9.597185
 
  0.4000000E+00  0.2000000E+00  0.2000000E+00  0.4800000E-01
    1      -29.022987
    2      -28.979935
    3      -28.977166
    4      -16.702913
    5      -16.587097
    6      -16.561782
    7      -13.019656
    8      -12.631447
    9      -12.424525
   10       -0.582781
   11       -0.130514
   12        0.148629
   13        0.323925
   14        0.711102
   15        1.341118
   16        2.530068
   17        2.579941
   18        2.942633
   19        6.946918
   20        7.515414
   21        7.577773
   22        9.738502
 
 -0.4000000E+00  0.2000000E+00  0.2000000E+00  0.4800000E-01
    1      -29.023067
    2      -28.979936
    3      -28.977095
    4      -16.701665
    5      -16.587752
    6      -16.561514
    7      -13.020397
    8      -12.632080
    9      -12.424618
   10       -0.633591
   11       -0.163889
   12        0.124347
   13        0.395867
   14        0.749451
   15        1.370258
   16        2.552218
   17        2.603630
   18        2.900961
   19        6.936635
   20        7.481825
   21        7.595450
   22        9.748440
 
 -0.2000000E+00  0.2000000E+00  0.2000000E+00  0.4800000E-01
    1      -28.982807
    2      -28.981855
    3      -28.976285
    4      -16.639053
    5      -16.580886
    6      -16.578369
    7      -13.286158
    8      -12.624081
    9      -12.624054
   10       -0.183316
   11        0.306717
   12        0.344819
   13        1.001599
   14        1.109995
   15        1.547761
   16        2.628976
   17        2.693641
   18        2.832150
   19        6.668725
   20        6.896616
   21        6.912497
   22        9.442257
 
  0.4000000E+00  0.4000000E+00  0.2000000E+00  0.4800000E-01
    1      -29.022863
    2      -29.019667
    3      -28.976641
    4      -16.665938
    5      -16.642340
    6      -16.556865
    7      -12.883028
    8      -12.425764
    9      -12.375965
   10       -0.789517
   11       -0.584694
   12       -0.350599
   13        0.086491
   14        0.167317
   15        0.991591
   16        2.646673
   17        2.717214
   18        3.467427
   19        7.603579
   20        7.649497
   21        7.899874
   22        9.774312
 
 -0.4000000E+00  0.4000000E+00  0.2000000E+00  0.9600000E-01
    1      -29.023147
    2      -29.019443
    3      -28.976584
    4      -16.663491
    5      -16.643830
    6      -16.556851
    7      -12.885347
    8      -12.423883
    9      -12.377092
   10       -0.826152
   11       -0.627552
   12       -0.292731
   13        0.067866
   14        0.181944
   15        1.029966
   16        2.683475
   17        2.713644
   18        3.455472
   19        7.574238
   20        7.651583
   21        7.907230
   22        9.720841
 
 -0.2000000E+00  0.4000000E+00  0.2000000E+00  0.9600000E-01
    1      -29.023017
    2      -28.981063
    3      -28.976028
    4      -16.701539
    5      -16.585930
    6      -16.562725
    7      -13.023138
    8      -12.629062
    9      -12.426141
   10       -0.607726
   11       -0.179087
   12        0.165612
   13        0.325446
   14        0.673655
   15        1.443949
   16        2.551505
   17        2.670907
   18        2.898717
   19        6.868566
   20        7.523672
   21        7.572639
   22        9.753272
 
 -0.4000000E+00 -0.4000000E+00  0.2000000E+00  0.4800000E-01
    1      -29.022865
    2      -29.019790
    3      -28.976534
    4      -16.664602
    5      -16.642092
    6      -16.557036
    7      -12.886350
    8      -12.424170
    9      -12.376594
   10       -0.795369
   11       -0.602908
   12       -0.378328
   13        0.043469
   14        0.206230
   15        1.059368
   16        2.699182
   17        2.716622
   18        3.454948
   19        7.551217
   20        7.666054
   21        7.902245
   22        9.694924
 
  0.4000000E+00  0.4000000E+00  0.4000000E+00  0.1600000E-01
    1      -29.020684
    2      -29.020684
    3      -29.015969
    4      -16.639876
    5      -16.613763
    6      -16.613763
    7      -12.503854
    8      -12.421465
    9      -12.421465
   10       -0.752095
   11       -0.477376
   12       -0.477376
   13       -0.468853
   14       -0.306212
   15       -0.306212
   16        3.373542
   17        3.373542
   18        3.577243
   19        7.952102
   20        8.047688
   21        8.047688
   22        9.735895
 
 -0.4000000E+00  0.4000000E+00  0.4000000E+00  0.4800000E-01
    1      -29.021316
    2      -29.020685
    3      -29.015345
    4      -16.638176
    5      -16.614759
    6      -16.613606
    7      -12.514386
    8      -12.421848
    9      -12.411924
   10       -0.772718
   11       -0.588494
   12       -0.510314
   13       -0.462610
   14       -0.269556
   15       -0.176043
   16        3.396845
   17        3.414566
   18        3.531441
   19        7.951234
   20        8.036937
   21        8.059121
   22        9.559014
