    5    5 1024    1
  0.1170210E+02  0.3882200E-09  0.3882200E-09  0.3882200E-09  0.5000000E-15
  1.000000000000000E-004
  CAR 
 unknown system                          
     36     63     22
 
  0.0000000E+00  0.0000000E+00  0.0000000E+00  0.8000000E-02
    1      -28.967643
    2      -28.956113
    3      -28.946586
    4      -16.536482
    5      -16.519485
    6      -16.514506
    7      -13.875953
    8      -12.786439
    9      -12.783645
   10        0.621425
   11        0.623828
   12        0.647332
   13        2.337527
   14        2.361738
   15        2.530448
   16        3.023594
   17        3.086743
   18        3.120043
   19        5.796882
   20        5.906617
   21        5.987319
   22        8.247482
 
  0.2000000E+00  0.0000000E+00  0.0000000E+00  0.1600000E-01
    1      -28.973477
    2      -28.966292
    3      -28.954853
    4      -16.609816
    5      -16.526588
    6      -16.513979
    7      -13.656871
    8      -12.781534
    9      -12.677826
   10        0.201031
   11        0.651497
   12        0.677601
   13        1.816058
   14        1.969522
   15        2.226383
   16        2.307491
   17        2.925542
   18        2.977652
   19        5.997329
   20        6.409915
   21        6.519146
   22        8.322582
 
  0.4000000E+00  0.0000000E+00  0.0000000E+00  0.1600000E-01
    1      -29.015508
    2      -28.964714
    3      -28.953129
    4      -16.742111
    5      -16.519573
    6      -16.505129
    7      -13.302183
    8      -12.767844
    9      -12.494623
   10       -0.545529
   11        0.804544
   12        0.824694
   13        1.034559
   14        1.318327
   15        1.456106
   16        1.807472
   17        2.786930
   18        2.864335
   19        6.075708
   20        7.342123
   21        7.485583
   22        8.318779
 
  0.0000000E+00  0.2000000E+00  0.0000000E+00  0.1600000E-01
    1      -28.983007
    2      -28.966134
    3      -28.945537
    4      -16.614521
    5      -16.524385
    6      -16.510548
    7      -13.655333
    8      -12.777908
    9      -12.682281
   10        0.198276
   11        0.642714
   12        0.666733
   13        1.831598
   14        1.958197
   15        2.199586
   16        2.304927
   17        2.925824
   18        3.010520
   19        5.932374
   20        6.475153
   21        6.544861
   22        8.292363
 
  0.2000000E+00  0.2000000E+00  0.0000000E+00  0.1600000E-01
    1      -28.982060
    2      -28.972435
    3      -28.964696
    4      -16.619501
    5      -16.566049
    6      -16.516870
    7      -13.472920
    8      -12.724199
    9      -12.622291
   10       -0.003588
   11        0.403521
   12        0.686119
   13        1.084049
   14        1.663292
   15        2.003900
   16        2.356386
   17        2.742226
   18        2.812335
   19        6.419515
   20        6.599368
   21        6.788832
   22        8.765143
 
  0.4000000E+00  0.2000000E+00  0.0000000E+00  0.1600000E-01
    1      -29.014685
    2      -28.980386
    3      -28.963224
    4      -16.708670
    5      -16.565136
    6      -16.507276
    7      -13.200938
    8      -12.677200
    9      -12.442947
   10       -0.567273
   11       -0.073106
   12        0.498110
   13        0.818165
   14        1.179767
   15        1.593758
   16        2.116926
   17        2.625285
   18        2.754993
   19        6.578528
   20        7.394497
   21        7.508666
   22        8.867369
 
 -0.4000000E+00  0.2000000E+00  0.0000000E+00  0.1600000E-01
    1      -29.014704
    2      -28.980369
    3      -28.963222
    4      -16.708267
    5      -16.565418
    6      -16.507229
    7      -13.201149
    8      -12.676764
    9      -12.443464
   10       -0.585418
   11       -0.091149
   12        0.541617
   13        0.813431
   14        1.187675
   15        1.600936
   16        2.111380
   17        2.626123
   18        2.752315
   19        6.570410
   20        7.383056
   21        7.517486
   22        8.865525
 
 -0.2000000E+00  0.2000000E+00  0.0000000E+00  0.1600000E-01
    1      -28.982159
    2      -28.972359
    3      -28.964672
    4      -16.618001
    5      -16.567392
    6      -16.516751
    7      -13.472793
    8      -12.723868
    9      -12.623267
   10       -0.021437
   11        0.350712
   12        0.685252
   13        1.172185
   14        1.673320
   15        2.015230
   16        2.332275
   17        2.736242
   18        2.829538
   19        6.371649
   20        6.614462
   21        6.797904
   22        8.760559
 
  0.0000000E+00  0.4000000E+00  0.0000000E+00  0.1600000E-01
    1      -29.025232
    2      -28.964498
    3      -28.943768
    4      -16.744593
    5      -16.516349
    6      -16.503852
    7      -13.297445
    8      -12.761871
    9      -12.502625
   10       -0.570820
   11        0.773546
   12        0.800383
   13        1.073892
   14        1.301132
   15        1.420772
   16        1.805770
   17        2.821873
   18        2.910296
   19        6.011413
   20        7.410858
   21        7.496744
   22        8.291516
 
  0.2000000E+00  0.4000000E+00  0.0000000E+00  0.1600000E-01
    1      -29.024414
    2      -28.970844
    3      -28.963127
    4      -16.710825
    5      -16.561336
    6      -16.507764
    7      -13.199118
    8      -12.668758
    9      -12.451257
   10       -0.589626
   11       -0.084873
   12        0.503473
   13        0.804517
   14        1.179492
   15        1.590250
   16        2.123732
   17        2.658002
   18        2.749271
   19        6.529265
   20        7.448653
   21        7.511592
   22        8.854600
 
  0.4000000E+00  0.4000000E+00  0.0000000E+00  0.1600000E-01
    1      -29.023113
    2      -29.013244
    3      -28.961706
    4      -16.662438
    5      -16.640154
    6      -16.499013
    7      -13.135815
    8      -12.412314
    9      -12.349928
   10       -0.898708
   11       -0.638671
   12       -0.358885
   13        0.806992
   14        0.950340
   15        1.707159
   16        1.843752
   17        2.171448
   18        3.416011
   19        7.421752
   20        7.492864
   21        7.827462
   22        9.061032
 
 -0.4000000E+00  0.4000000E+00  0.0000000E+00  0.1600000E-01
    1      -29.023152
    2      -29.013202
    3      -28.961706
    4      -16.660950
    5      -16.641550
    6      -16.498997
    7      -13.136175
    8      -12.409997
    9      -12.352021
   10       -0.919109
   11       -0.653569
   12       -0.320847
   13        0.798670
   14        0.960083
   15        1.719443
   16        1.832917
   17        2.173068
   18        3.413425
   19        7.407127
   20        7.498471
   21        7.831913
   22        9.058781
 
 -0.2000000E+00  0.4000000E+00  0.0000000E+00  0.1600000E-01
    1      -29.024425
    2      -28.970836
    3      -28.963122
    4      -16.710438
    5      -16.561604
    6      -16.507713
    7      -13.199342
    8      -12.668260
    9      -12.451823
   10       -0.607967
   11       -0.100536
   12        0.544585
   13        0.800134
   14        1.187084
   15        1.597079
   16        2.118408
   17        2.657814
   18        2.747963
   19        6.521635
   20        7.432046
   21        7.524943
   22        8.853102
 
  0.0000000E+00  0.0000000E+00  0.2000000E+00  0.1600000E-01
    1      -28.994070
    2      -28.955141
    3      -28.945519
    4      -16.620859
    5      -16.516653
    6      -16.510514
    7      -13.653994
    8      -12.776777
    9      -12.684319
   10        0.194602
   11        0.637877
   12        0.650896
   13        1.855498
   14        1.936474
   15        2.199381
   16        2.259339
   17        2.969030
   18        3.019722
   19        5.851702
   20        6.541841
   21        6.588248
   22        8.260663
 
  0.2000000E+00  0.0000000E+00  0.2000000E+00  0.1600000E-01
    1      -28.993121
    2      -28.972174
    3      -28.953943
    4      -16.623558
    5      -16.566943
    6      -16.510792
    7      -13.469573
    8      -12.725241
    9      -12.624075
   10        0.001573
   11        0.395571
   12        0.669499
   13        1.067537
   14        1.670821
   15        2.054140
   16        2.337000
   17        2.740151
   18        2.771381
   19        6.430871
   20        6.623555
   21        6.804529
   22        8.737465
 
  0.4000000E+00  0.0000000E+00  0.2000000E+00  0.1600000E-01
    1      -29.014686
    2      -28.991384
    3      -28.952256
    4      -16.709114
    5      -16.568426
    6      -16.502661
    7      -13.192299
    8      -12.684526
    9      -12.444036
   10       -0.564225
   11       -0.078263
   12        0.509922
   13        0.792696
   14        1.175592
   15        1.592662
   16        2.160408
   17        2.560298
   18        2.763484
   19        6.624560
   20        7.387777
   21        7.508966
   22        8.863282
 
 -0.4000000E+00  0.0000000E+00  0.2000000E+00  0.1600000E-01
    1      -29.014725
    2      -28.991346
    3      -28.952255
    4      -16.708528
    5      -16.568781
    6      -16.502637
    7      -13.192557
    8      -12.683947
    9      -12.444840
   10       -0.588240
   11       -0.099991
   12        0.565730
   13        0.786129
   14        1.186127
   15        1.602583
   16        2.155437
   17        2.561229
   18        2.757322
   19        6.614313
   20        7.377996
   21        7.515414
   22        8.859799
 
 -0.2000000E+00  0.0000000E+00  0.2000000E+00  0.1600000E-01
    1      -28.993190
    2      -28.972106
    3      -28.953940
    4      -16.621581
    5      -16.568558
    6      -16.510735
    7      -13.469356
    8      -12.724816
    9      -12.625562
   10       -0.022814
   11        0.330353
   12        0.666553
   13        1.182034
   14        1.683078
   15        2.072189
   16        2.313977
   17        2.726186
   18        2.788858
   19        6.379971
   20        6.640450
   21        6.808159
   22        8.730625
 
  0.0000000E+00  0.2000000E+00  0.2000000E+00  0.1600000E-01
    1      -28.993241
    2      -28.981550
    3      -28.944499
    4      -16.626784
    5      -16.567302
    6      -16.506644
    7      -13.466363
    8      -12.723995
    9      -12.627431
   10        0.009972
   11        0.407504
   12        0.656207
   13        1.026570
   14        1.674921
   15        2.098849
   16        2.322785
   17        2.718850
   18        2.748969
   19        6.486511
   20        6.610376
   21        6.814490
   22        8.714400
 
  0.2000000E+00  0.2000000E+00  0.2000000E+00  0.1600000E-01
    1      -28.992170
    2      -28.980582
    3      -28.970978
    4      -16.624583
    5      -16.556471
    6      -16.556035
    7      -13.288270
    8      -12.634749
    9      -12.625278
   10       -0.153936
   11        0.372215
   12        0.387210
   13        0.997503
   14        1.014334
   15        1.405404
   16        2.578445
   17        2.611431
   18        2.894347
   19        6.784183
   20        6.880220
   21        6.895069
   22        9.590176
 
  0.4000000E+00  0.2000000E+00  0.2000000E+00  0.1600000E-01
    1      -29.013675
    2      -28.990324
    3      -28.978830
    4      -16.682326
    5      -16.571124
    6      -16.537539
    7      -13.026835
    8      -12.646105
    9      -12.420974
   10       -0.581215
   11       -0.119774
   12        0.162204
   13        0.319525
   14        0.693933
   15        1.319674
   16        2.523098
   17        2.558412
   18        2.930966
   19        6.972725
   20        7.474210
   21        7.579759
   22        9.754173
 
 -0.4000000E+00  0.2000000E+00  0.2000000E+00  0.1600000E-01
    1      -29.013761
    2      -28.990280
    3      -28.978793
    4      -16.681209
    5      -16.571769
    6      -16.537333
    7      -13.027536
    8      -12.646612
    9      -12.420969
   10       -0.616902
   11       -0.148124
   12        0.143047
   13        0.373261
   14        0.724718
   15        1.341092
   16        2.541167
   17        2.575654
   18        2.899388
   19        6.964620
   20        7.449383
   21        7.593500
   22        9.760361
 
 -0.2000000E+00  0.2000000E+00  0.2000000E+00  0.1600000E-01
    1      -28.992250
    2      -28.980790
    3      -28.970698
    4      -16.622037
    5      -16.558265
    6      -16.555650
    7      -13.288831
    8      -12.635564
    9      -12.625948
   10       -0.181009
   11        0.310556
   12        0.349952
   13        0.981485
   14        1.086384
   15        1.512535
   16        2.597642
   17        2.681327
   18        2.833235
   19        6.676230
   20        6.907680
   21        6.916737
   22        9.478072
 
  0.0000000E+00  0.4000000E+00  0.2000000E+00  0.1600000E-01
    1      -29.024417
    2      -28.991269
    3      -28.942774
    4      -16.711837
    5      -16.566917
    6      -16.499850
    7      -13.182072
    8      -12.683293
    9      -12.452832
   10       -0.579330
   11       -0.089483
   12        0.512349
   13        0.762121
   14        1.164988
   15        1.591004
   16        2.217736
   17        2.523456
   18        2.763554
   19        6.619103
   20        7.438858
   21        7.510365
   22        8.848180
 
  0.2000000E+00  0.4000000E+00  0.2000000E+00  0.1600000E-01
    1      -29.023405
    2      -28.990147
    3      -28.969361
    4      -16.684573
    5      -16.566348
    6      -16.538803
    7      -13.022550
    8      -12.638397
    9      -12.431716
   10       -0.591376
   11       -0.141046
   12        0.145880
   13        0.315809
   14        0.696312
   15        1.345048
   16        2.520817
   17        2.578398
   18        2.927849
   19        6.938887
   20        7.518556
   21        7.572762
   22        9.741562
 
  0.4000000E+00  0.4000000E+00  0.2000000E+00  0.1600000E-01
    1      -29.021804
    2      -29.011956
    3      -28.988205
    4      -16.645296
    5      -16.623238
    6      -16.536022
    7      -12.900687
    8      -12.426354
    9      -12.375780
   10       -0.789287
   11       -0.595222
   12       -0.345326
   13        0.095466
   14        0.168393
   15        0.973724
   16        2.637097
   17        2.707399
   18        3.449532
   19        7.597952
   20        7.644246
   21        7.898743
   22        9.785633
 
 -0.4000000E+00  0.4000000E+00  0.2000000E+00  0.1600000E-01
    1      -29.021850
    2      -29.011998
    3      -28.988121
    4      -16.643123
    5      -16.624578
    6      -16.536042
    7      -12.902700
    8      -12.425598
    9      -12.375884
   10       -0.812440
   11       -0.624811
   12       -0.311333
   13        0.081279
   14        0.179069
   15        1.004811
   16        2.665240
   17        2.707507
   18        3.440150
   19        7.567858
   20        7.652113
   21        7.904837
   22        9.741305
 
 -0.2000000E+00  0.4000000E+00  0.2000000E+00  0.1600000E-01
    1      -29.023416
    2      -28.990316
    3      -28.969196
    4      -16.683452
    5      -16.565188
    6      -16.539741
    7      -13.025996
    8      -12.635821
    9      -12.433179
   10       -0.606307
   11       -0.179500
   12        0.162945
   13        0.314723
   14        0.658788
   15        1.424605
   16        2.538192
   17        2.654237
   18        2.893439
   19        6.873884
   20        7.523092
   21        7.573637
   22        9.753602
 
  0.0000000E+00 -0.4000000E+00  0.2000000E+00  0.1600000E-01
    1      -29.024464
    2      -28.991223
    3      -28.942773
    4      -16.710766
    5      -16.567490
    6      -16.499845
    7      -13.182474
    8      -12.682263
    9      -12.454490
   10       -0.619888
   11       -0.118916
   12        0.599976
   13        0.750439
   14        1.182773
   15        1.608302
   16        2.213478
   17        2.523412
   18        2.750752
   19        6.603477
   20        7.426750
   21        7.515953
   22        8.841314
 
  0.2000000E+00 -0.4000000E+00  0.2000000E+00  0.1600000E-01
    1      -29.023497
    2      -28.990086
    3      -28.969340
    4      -16.682979
    5      -16.567214
    6      -16.538496
    7      -13.023556
    8      -12.639251
    9      -12.431784
   10       -0.641395
   11       -0.175286
   12        0.123651
   13        0.384403
   14        0.738544
   15        1.374652
   16        2.545817
   17        2.603302
   18        2.881936
   19        6.928050
   20        7.484240
   21        7.591352
   22        9.746680
 
  0.4000000E+00 -0.4000000E+00  0.2000000E+00  0.1600000E-01
    1      -29.021963
    2      -29.011901
    3      -28.988110
    4      -16.642756
    5      -16.624341
    6      -16.536110
    7      -12.904133
    8      -12.424248
    9      -12.376804
   10       -0.814713
   11       -0.630058
   12       -0.317428
   13        0.067545
   14        0.192857
   15        1.023090
   16        2.681097
   17        2.707644
   18        3.435784
   19        7.566854
   20        7.642493
   21        7.905261
   22        9.718590
 
 -0.4000000E+00 -0.4000000E+00  0.2000000E+00  0.1600000E-01
    1      -29.021897
    2      -29.012054
    3      -28.988033
    4      -16.643535
    5      -16.622901
    6      -16.536295
    7      -12.905308
    8      -12.423929
    9      -12.376809
   10       -0.796689
   11       -0.614220
   12       -0.374911
   13        0.048563
   14        0.212024
   15        1.047146
   16        2.699473
   17        2.707849
   18        3.433599
   19        7.543488
   20        7.658219
   21        7.900550
   22        9.689037
 
 -0.2000000E+00 -0.4000000E+00  0.2000000E+00  0.1600000E-01
    1      -29.023470
    2      -28.990251
    3      -28.969211
    4      -16.682748
    5      -16.565502
    6      -16.539650
    7      -13.026363
    8      -12.636336
    9      -12.433280
   10       -0.625871
   11       -0.191318
   12        0.157399
   13        0.332237
   14        0.682844
   15        1.435640
   16        2.549349
   17        2.663548
   18        2.872864
   19        6.869575
   20        7.528000
   21        7.562742
   22        9.741741
 
  0.0000000E+00 -0.2000000E+00  0.2000000E+00  0.1600000E-01
    1      -28.993459
    2      -28.981332
    3      -28.944497
    4      -16.623212
    5      -16.570063
    6      -16.506630
    7      -13.465885
    8      -12.723382
    9      -12.630294
   10       -0.032501
   11        0.303691
   12        0.649318
   13        1.217468
   14        1.694224
   15        2.134304
   16        2.298520
   17        2.707877
   18        2.747110
   19        6.400815
   20        6.653812
   21        6.806926
   22        8.701528
 
  0.2000000E+00 -0.2000000E+00  0.2000000E+00  0.1600000E-01
    1      -28.992461
    2      -28.980493
    3      -28.970788
    4      -16.620716
    5      -16.559328
    6      -16.555312
    7      -13.289078
    8      -12.636082
    9      -12.626395
   10       -0.192071
   11        0.287336
   12        0.336883
   13        0.991408
   14        1.107724
   15        1.549928
   16        2.626261
   17        2.686718
   18        2.804531
   19        6.659900
   20        6.893232
   21        6.925131
   22        9.422636
 
  0.4000000E+00 -0.2000000E+00  0.2000000E+00  0.1600000E-01
    1      -29.013689
    2      -28.990801
    3      -28.978361
    4      -16.680697
    5      -16.569128
    6      -16.538936
    7      -13.033020
    8      -12.641120
    9      -12.423772
   10       -0.594966
   11       -0.177941
   12        0.196415
   13        0.300441
   14        0.630556
   15        1.445657
   16        2.551759
   17        2.673727
   18        2.881910
   19        6.866486
   20        7.493945
   21        7.570205
   22        9.759667
 
 -0.4000000E+00 -0.2000000E+00  0.2000000E+00  0.1600000E-01
    1      -29.013719
    2      -28.990748
    3      -28.978385
    4      -16.680512
    5      -16.569199
    6      -16.538923
    7      -13.033108
    8      -12.641250
    9      -12.423812
   10       -0.600194
   11       -0.181154
   12        0.195334
   13        0.303284
   14        0.638624
   15        1.448575
   16        2.554836
   17        2.675809
   18        2.876492
   19        6.865311
   20        7.495700
   21        7.566838
   22        9.752293
 
 -0.2000000E+00 -0.2000000E+00  0.2000000E+00  0.1600000E-01
    1      -28.992561
    2      -28.980330
    3      -28.970852
    4      -16.620280
    5      -16.559470
    6      -16.555392
    7      -13.289156
    8      -12.636182
    9      -12.626651
   10       -0.195901
   11        0.283812
   12        0.326942
   13        0.998606
   14        1.112530
   15        1.563470
   16        2.640258
   17        2.683877
   18        2.794359
   19        6.656618
   20        6.890244
   21        6.923408
   22        9.404693
 
  0.0000000E+00  0.0000000E+00  0.4000000E+00  0.1600000E-01
    1      -29.036499
    2      -28.953391
    3      -28.943748
    4      -16.747925
    5      -16.509865
    6      -16.503840
    7      -13.293288
    8      -12.758185
    9      -12.508244
   10       -0.598965
   11        0.752788
   12        0.764464
   13        1.111970
   14        1.289850
   15        1.373344
   16        1.801423
   17        2.882806
   18        2.937027
   19        5.939012
   20        7.470131
   21        7.531117
   22        8.261171
 
  0.2000000E+00  0.0000000E+00  0.4000000E+00  0.1600000E-01
    1      -29.035673
    2      -28.970586
    3      -28.952243
    4      -16.714059
    5      -16.560001
    6      -16.503148
    7      -13.189056
    8      -12.669615
    9      -12.458521
   10       -0.611827
   11       -0.101065
   12        0.516892
   13        0.764756
   14        1.170737
   15        1.591218
   16        2.175519
   17        2.625992
   18        2.748603
   19        6.520571
   20        7.486995
   21        7.533340
   22        8.837920
 
  0.4000000E+00  0.0000000E+00  0.4000000E+00  0.1600000E-01
    1      -29.034333
    2      -29.013192
    3      -28.950620
    4      -16.665281
    5      -16.639128
    6      -16.495005
    7      -13.119641
    8      -12.423173
    9      -12.354119
   10       -0.909405
   11       -0.640453
   12       -0.361206
   13        0.778323
   14        0.940820
   15        1.723111
   16        1.845018
   17        2.154350
   18        3.425939
   19        7.425003
   20        7.523164
   21        7.827784
   22        9.084247
 
 -0.4000000E+00  0.0000000E+00  0.4000000E+00  0.1600000E-01
    1      -29.034358
    2      -29.013164
    3      -28.950619
    4      -16.663537
    5      -16.640718
    6      -16.494997
    7      -13.120169
    8      -12.419767
    9      -12.357241
   10       -0.935574
   11       -0.658889
   12       -0.312975
   13        0.767411
   14        0.953800
   15        1.740032
   16        1.831845
   17        2.155166
   18        3.422001
   19        7.411280
   20        7.526203
   21        7.832890
   22        9.080209
 
 -0.2000000E+00  0.0000000E+00  0.4000000E+00  0.1600000E-01
    1      -29.035686
    2      -28.970574
    3      -28.952242
    4      -16.713524
    5      -16.560304
    6      -16.503121
    7      -13.189351
    8      -12.668871
    9      -12.459456
   10       -0.636216
   11       -0.117332
   12        0.567124
   13        0.758950
   14        1.180474
   15        1.600365
   16        2.170832
   17        2.625838
   18        2.744633
   19        6.511483
   20        7.470934
   21        7.544624
   22        8.835204
 
  0.0000000E+00  0.2000000E+00  0.4000000E+00  0.1600000E-01
    1      -29.035670
    2      -28.980104
    3      -28.942770
    4      -16.714616
    5      -16.562244
    6      -16.499907
    7      -13.180643
    8      -12.676807
    9      -12.459031
   10       -0.604482
   11       -0.101307
   12        0.514619
   13        0.747555
   14        1.160928
   15        1.593097
   16        2.225729
   17        2.555952
   18        2.754965
   19        6.564217
   20        7.486118
   21        7.529705
   22        8.835692
 
  0.2000000E+00  0.2000000E+00  0.4000000E+00  0.1600000E-01
    1      -29.034651
    2      -28.978989
    3      -28.969347
    4      -16.687266
    5      -16.561257
    6      -16.539477
    7      -13.017290
    8      -12.633517
    9      -12.440591
   10       -0.608003
   11       -0.159896
   12        0.118178
   13        0.323950
   14        0.715516
   15        1.357094
   16        2.520638
   17        2.581575
   18        2.924945
   19        6.915654
   20        7.551597
   21        7.578893
   22        9.729562
 
  0.4000000E+00  0.2000000E+00  0.4000000E+00  0.1600000E-01
    1      -29.033019
    2      -29.011908
    3      -28.977089
    4      -16.647693
    5      -16.621810
    6      -16.533651
    7      -12.886872
    8      -12.435098
    9      -12.380039
   10       -0.797248
   11       -0.600527
   12       -0.345834
   13        0.073465
   14        0.166759
   15        0.989392
   16        2.635291
   17        2.705833
   18        3.455513
   19        7.588480
   20        7.658127
   21        7.902104
   22        9.775212
 
 -0.4000000E+00  0.2000000E+00  0.4000000E+00  0.1600000E-01
    1      -29.033050
    2      -29.011920
    3      -28.977048
    4      -16.645480
    5      -16.623337
    6      -16.533638
    7      -12.888659
    8      -12.434117
    9      -12.380378
   10       -0.825497
   11       -0.633278
   12       -0.297646
   13        0.064177
   14        0.173222
   15        1.013829
   16        2.662368
   17        2.703130
   18        3.446334
   19        7.563107
   20        7.663903
   21        7.908809
   22        9.734061
 
 -0.2000000E+00  0.2000000E+00  0.4000000E+00  0.1600000E-01
    1      -29.034668
    2      -28.979243
    3      -28.969088
    4      -16.686165
    5      -16.560315
    6      -16.540370
    7      -13.019933
    8      -12.631830
    9      -12.441627
   10       -0.628791
   11       -0.193436
   12        0.129468
   13        0.333002
   14        0.691361
   15        1.422685
   16        2.535902
   17        2.648918
   18        2.889323
   19        6.863790
   20        7.547316
   21        7.585948
   22        9.739285
 
  0.0000000E+00  0.4000000E+00  0.4000000E+00  0.1600000E-01
    1      -29.034481
    2      -29.022664
    3      -28.941110
    4      -16.668673
    5      -16.636958
    6      -16.492549
    7      -13.103341
    8      -12.432479
    9      -12.359209
   10       -0.913880
   11       -0.634842
   12       -0.377306
   13        0.764007
   14        0.920382
   15        1.737033
   16        1.852891
   17        2.139668
   18        3.431395
   19        7.464815
   20        7.517351
   21        7.824400
   22        9.105502
 
  0.2000000E+00  0.4000000E+00  0.4000000E+00  0.1600000E-01
    1      -29.033169
    2      -29.021391
    3      -28.967527
    4      -16.650700
    5      -16.618892
    6      -16.532618
    7      -12.873186
    8      -12.440045
    9      -12.387774
   10       -0.801030
   11       -0.595640
   12       -0.364804
   13        0.058243
   14        0.160495
   15        1.010128
   16        2.639119
   17        2.708131
   18        3.456329
   19        7.591308
   20        7.660428
   21        7.901840
   22        9.760390
 
  0.4000000E+00  0.4000000E+00  0.4000000E+00  0.1600000E-01
    1      -29.031066
    2      -29.019402
    3      -29.009761
    4      -16.622079
    5      -16.595519
    6      -16.588490
    7      -12.508195
    8      -12.436776
    9      -12.418470
   10       -0.767467
   11       -0.495711
   12       -0.480610
   13       -0.473439
   14       -0.321989
   15       -0.278290
   16        3.350210
   17        3.365299
   18        3.562434
   19        7.948648
   20        8.041065
   21        8.052637
   22        9.712395
 
 -0.4000000E+00  0.4000000E+00  0.4000000E+00  0.1600000E-01
    1      -29.031113
    2      -29.019528
    3      -29.009594
    4      -16.620529
    5      -16.596495
    6      -16.588396
    7      -12.516872
    8      -12.436593
    9      -12.411063
   10       -0.781961
   11       -0.573523
   12       -0.501179
   13       -0.474068
   14       -0.292938
   15       -0.187870
   16        3.369102
   17        3.395180
   18        3.528233
   19        7.943004
   20        8.038575
   21        8.061094
   22        9.593056
 
 -0.2000000E+00  0.4000000E+00  0.4000000E+00  0.1600000E-01
    1      -29.033193
    2      -29.021427
    3      -28.967479
    4      -16.649623
    5      -16.618702
    6      -16.532790
    7      -12.876146
    8      -12.438414
    9      -12.388308
   10       -0.804542
   11       -0.609356
   12       -0.384252
   13        0.028120
   14        0.188125
   15        1.057278
   16        2.679333
   17        2.708210
   18        3.446658
   19        7.552912
   20        7.671460
   21        7.905593
   22        9.700694
 
  0.0000000E+00 -0.4000000E+00  0.4000000E+00  0.1600000E-01
    1      -29.034561
    2      -29.022579
    3      -28.941109
    4      -16.665984
    5      -16.639327
    6      -16.492549
    7      -13.104322
    8      -12.425927
    9      -12.365328
   10       -0.956240
   11       -0.665639
   12       -0.298006
   13        0.743906
   14        0.944257
   15        1.766897
   16        1.832599
   17        2.138897
   18        3.423885
   19        7.438018
   20        7.528331
   21        7.831551
   22        9.097013
 
  0.2000000E+00 -0.4000000E+00  0.4000000E+00  0.1600000E-01
    1      -29.033276
    2      -29.021309
    3      -28.967500
    4      -16.647786
    5      -16.620954
    6      -16.532552
    7      -12.875585
    8      -12.437879
    9      -12.389102