 vasp.5.3.5 31Mar14 (build Dec 17 2015 22:09:37) complex                        
  
 executed on             LinuxIFC date 2017.03.19  16:23:36
 running on   22 total cores
 distrk:  each k-point on   22 cores,    1 groups
 distr:  one band on NCORES_PER_BAND=   1 cores,   22 groups


--------------------------------------------------------------------------------------------------------


 INCAR:
 POTCAR:    PAW_PBE Ti_pv 07Sep2000               
 POTCAR:    PAW_PBE Ca_pv 06Sep2000               
 POTCAR:    PAW_PBE O 08Apr2002                   

 ----------------------------------------------------------------------------- 
|                                                                             |
|           W    W    AA    RRRRR   N    N  II  N    N   GGGG   !!!           |
|           W    W   A  A   R    R  NN   N  II  NN   N  G    G  !!!           |
|           W    W  A    A  R    R  N N  N  II  N N  N  G       !!!           |
|           W WW W  AAAAAA  RRRRR   N  N N  II  N  N N  G  GGG   !            |
|           WW  WW  A    A  R   R   N   NN  II  N   NN  G    G                |
|           W    W  A    A  R    R  N    N  II  N    N   GGGG   !!!           |
|                                                                             |
|      For optimal performance we recommend to set                            |
|        NCORE= 4 - approx SQRT( number of cores)                             |
|      NCORE specifies how many cores store one orbital (NPAR=cpu/NCORE).     |
|      This setting can  greatly improve the performance of VASP for DFT.     |
|      The default, NPAR=number of cores might be grossly inefficient         |
|      on modern multi-core architectures or massively parallel machines.     |
|      Do your own testing !!!!                                               |
|      Unfortunately you need to use the default for GW and RPA calculations. |
|      (for HF NCORE is supported but not extensively tested yet)             |
|                                                                             |
 ----------------------------------------------------------------------------- 

 POTCAR:    PAW_PBE Ti_pv 07Sep2000               
   VRHFIN =Ti: d3 s1                                                            
   LEXCH  = PE                                                                  
   EATOM  =  1042.5995 eV,   76.6289 Ry                                         
                                                                                
   TITEL  = PAW_PBE Ti_pv 07Sep2000                                             
   LULTRA =        F    use ultrasoft PP ?                                      
   IUNSCR =        1    unscreen: 0-lin 1-nonlin 2-no                           
   RPACOR =    2.200    partial core radius                                     
   POMASS =   47.880; ZVAL   =   10.000    mass and valenz                      
   RCORE  =    2.500    outmost cutoff radius                                   
   RWIGS  =    2.500; RWIGS  =    1.323    wigner-seitz radius (au A)           
   ENMAX  =  222.335; ENMIN  =  166.751 eV                                      
   RCLOC  =    1.701    cutoff for local pot                                    
   LCOR   =        T    correct aug charges                                     
   LPAW   =        T    paw PP                                                  
   EAUG   =  482.848                                                            
   DEXC   =    0.000                                                            
   RMAX   =    2.564    core radius for proj-oper                               
   RAUG   =    1.300    factor for augmentation sphere                          
   RDEP   =    2.538    radius for radial grids                                 
   RDEPT  =    1.952    core radius for aug-charge                              
                                                                                
   Atomic configuration                                                         
    8 entries                                                                   
     n  l   j            E        occ.                                          
     1  0  0.50     -4865.3608   2.0000                                         
     2  0  0.50      -533.1368   2.0000                                         
     2  1  1.50      -440.5031   6.0000                                         
     3  0  0.50       -59.3186   2.0000                                         
     3  1  1.50       -35.7012   6.0000                                         
     3  2  2.50        -1.9157   3.0000                                         
     4  0  0.50        -3.7291   1.0000                                         
     4  3  2.50        -1.3606   0.0000                                         
   Description                                                                  
     l       E           TYP  RCUT    TYP  RCUT                                 
     1    -35.7012140     23  2.300                                             
     1     -1.3605826     23  2.300                                             
     2     -1.9156996     23  2.500                                             
     2     -0.4063033     23  2.500                                             
     0     -3.7290856     23  2.500                                             
     0     20.4087390     23  2.500                                             
  local pseudopotential read in
  partial core-charges read in
  partial kinetic energy density read in
  atomic valenz-charges read in
  non local Contribution for L=           1  read in
    real space projection operators read in
  non local Contribution for L=           1  read in
    real space projection operators read in
  non local Contribution for L=           2  read in
    real space projection operators read in
  non local Contribution for L=           2  read in
    real space projection operators read in
  non local Contribution for L=           0  read in
    real space projection operators read in
  non local Contribution for L=           0  read in
    real space projection operators read in
    PAW grid and wavefunctions read in
 
   number of l-projection  operators is LMAX  =           6
   number of lm-projection operators is LMMAX =          18
 
 POTCAR:    PAW_PBE Ca_pv 06Sep2000               
   VRHFIN =Ca: p6s2d0.01                                                        
   LEXCH  = PE                                                                  
   EATOM  =   612.6676 eV,   45.0298 Ry                                         
                                                                                
   TITEL  = PAW_PBE Ca_pv 06Sep2000                                             
   LULTRA =        F    use ultrasoft PP ?                                      
   IUNSCR =        1    unscreen: 0-lin 1-nonlin 2-no                           
   RPACOR =    2.300    partial core radius                                     
   POMASS =   40.078; ZVAL   =    8.000    mass and valenz                      
   RCORE  =    3.000    outmost cutoff radius                                   
   RWIGS  =    3.300; RWIGS  =    1.746    wigner-seitz radius (au A)           
   ENMAX  =  119.559; ENMIN  =   89.670 eV                                      
   RCLOC  =    1.709    cutoff for local pot                                    
   LCOR   =        T    correct aug charges                                     
   LPAW   =        T    paw PP                                                  
   EAUG   =  325.799                                                            
   DEXC   =    0.000                                                            
   RMAX   =    3.072    core radius for proj-oper                               
   RAUG   =    1.300    factor for augmentation sphere                          
   RDEP   =    3.090    radius for radial grids                                 
   RDEPT  =    2.377    core radius for aug-charge                              
                                                                                
   Atomic configuration                                                         
    7 entries                                                                   
     n  l   j            E        occ.                                          
     1  0  0.50     -3949.1705   2.0000                                         
     2  0  0.50      -414.3434   2.0000                                         
     2  1  1.50      -334.7047   6.0000                                         
     3  0  0.50       -47.0896   2.0000                                         
     3  1  1.50       -28.0061   6.0000                                         
     4  0  0.50        -3.7663   2.0000                                         
     3  2  1.50        -4.0817   0.0000                                         
   Description                                                                  
     l       E           TYP  RCUT    TYP  RCUT                                 
     1    -28.0060855     23  3.000                                             
     1      1.3605826     23  3.000                                             
     0     -3.7663320     23  3.000                                             
     0      4.1207953     23  3.000                                             
     2     -4.0817478     23  3.000                                             
     2     -0.8716232     23  3.000                                             
  local pseudopotential read in
  partial core-charges read in
  partial kinetic energy density read in
  atomic valenz-charges read in
  non local Contribution for L=           1  read in
    real space projection operators read in
  non local Contribution for L=           1  read in
    real space projection operators read in
  non local Contribution for L=           0  read in
    real space projection operators read in
  non local Contribution for L=           0  read in
    real space projection operators read in
  non local Contribution for L=           2  read in
    real space projection operators read in
  non local Contribution for L=           2  read in
    real space projection operators read in
    PAW grid and wavefunctions read in
 
   number of l-projection  operators is LMAX  =           6
   number of lm-projection operators is LMMAX =          18
 
 POTCAR:    PAW_PBE O 08Apr2002                   
   VRHFIN =O: s2p4                                                              
   LEXCH  = PE                                                                  
   EATOM  =   432.3788 eV,   31.7789 Ry                                         
                                                                                
   TITEL  = PAW_PBE O 08Apr2002                                                 
   LULTRA =        F    use ultrasoft PP ?                                      
   IUNSCR =        1    unscreen: 0-lin 1-nonlin 2-no                           
   RPACOR =    1.200    partial core radius                                     
   POMASS =   16.000; ZVAL   =    6.000    mass and valenz                      
   RCORE  =    1.520    outmost cutoff radius                                   
   RWIGS  =    1.550; RWIGS  =    0.820    wigner-seitz radius (au A)           
   ENMAX  =  400.000; ENMIN  =  300.000 eV                                      
   ICORE  =        2    local potential                                         
   LCOR   =        T    correct aug charges                                     
   LPAW   =        T    paw PP                                                  
   EAUG   =  605.392                                                            
   DEXC   =    0.000                                                            
   RMAX   =    1.553    core radius for proj-oper                               
   RAUG   =    1.300    factor for augmentation sphere                          
   RDEP   =    1.550    radius for radial grids                                 
   RDEPT  =    1.329    core radius for aug-charge                              
                                                                                
   Atomic configuration                                                         
    4 entries                                                                   
     n  l   j            E        occ.                                          
     1  0  0.50      -514.6923   2.0000                                         
     2  0  0.50       -23.9615   2.0000                                         
     2  1  0.50        -9.0305   4.0000                                         
     3  2  1.50        -9.5241   0.0000                                         
   Description                                                                  
     l       E           TYP  RCUT    TYP  RCUT                                 
     0    -23.9615318     23  1.200                                             
     0     -9.5240782     23  1.200                                             
     1     -9.0304911     23  1.520                                             
     1      8.1634956     23  1.520                                             
     2     -9.5240782      7  1.500                                             
  local pseudopotential read in
  partial core-charges read in
  partial kinetic energy density read in
  kinetic energy density of atom read in
  atomic valenz-charges read in
  non local Contribution for L=           0  read in
    real space projection operators read in
  non local Contribution for L=           0  read in
    real space projection operators read in
  non local Contribution for L=           1  read in
    real space projection operators read in
  non local Contribution for L=           1  read in
    real space projection operators read in
    PAW grid and wavefunctions read in
 
   number of l-projection  operators is LMAX  =           4
   number of lm-projection operators is LMMAX =           8
 
  PAW_PBE Ti_pv 07Sep2000               :
 energy of atom  1       EATOM=-1042.5995
 kinetic energy error for atom=    0.0037 (will be added to EATOM!!)
  PAW_PBE Ca_pv 06Sep2000               :
 energy of atom  2       EATOM= -612.6676
 kinetic energy error for atom=    0.0002 (will be added to EATOM!!)
  PAW_PBE O 08Apr2002                   :
 energy of atom  3       EATOM= -432.3788
 kinetic energy error for atom=    0.1156 (will be added to EATOM!!)
 
 
 POSCAR: CaTiO3                                  
  positions in direct lattice
  velocities in cartesian coordinates
  No initial velocities read in
 exchange correlation table for  LEXCH =        8
   RHO(1)=    0.500       N(1)  =     2000
   RHO(2)=  100.500       N(2)  =     4000

 VTST: version 3.1, (03/28/14)

 CHAIN: initializing optimizer
 
 OPT: Using VASP Conjugate-Gradient optimizer
 CHAIN: Read ICHAIN            0
 
 POSCAR: CaTiO3                                  
  positions in direct lattice
  velocities in cartesian coordinates
  No initial velocities read in
 


--------------------------------------------------------------------------------------------------------


 ion  position               nearest neighbor table
   1  0.000  0.000  0.000-   3 1.94   4 1.94   5 1.94   5 1.94   4 1.94   3 1.94   2 3.23   2 3.27
                             2 3.32   2 3.37   2 3.37   2 3.41   2 3.45   2 3.50
   2  0.510  0.520  0.530-   3 2.61   4 2.64   5 2.67   4 2.69   5 2.72   3 2.72   3 2.78   5 2.78
                             4 2.80   5 2.83   4 2.86   3 2.88   1 3.23   1 3.27   1 3.32   1 3.37
   3  0.500  0.000  0.000-   1 1.94   1 1.94   2 2.61   2 2.72   2 2.78   2 2.88
   4  0.000  0.500  0.000-   1 1.94   1 1.94   2 2.64   2 2.69   2 2.80   2 2.86
   5  0.000  0.000  0.500-   1 1.94   1 1.94   2 2.67   2 2.72   2 2.78   2 2.83
 
  LATTYP: Found a simple cubic cell.
 ALAT       =     3.8822000000
  
  Lattice vectors:
  
 A1 = (   3.8822000000,   0.0000000000,   0.0000000000)
 A2 = (   0.0000000000,   3.8822000000,   0.0000000000)
 A3 = (   0.0000000000,   0.0000000000,   3.8822000000)


Analysis of symmetry for initial positions (statically):
=====================================================================
 Subroutine PRICEL returns:
 Original cell was already a primitive cell.
 

 Routine SETGRP: Setting up the symmetry group for a 
 simple cubic supercell.


 Subroutine GETGRP returns: Found  1 space group operations
 (whereof  1 operations were pure point group operations)
 out of a pool of 48 trial point group operations.


The static configuration has the point symmetry C_1 .


Analysis of symmetry for dynamics (positions and initial velocities):
=====================================================================
 Subroutine PRICEL returns:
 Original cell was already a primitive cell.
 

 Routine SETGRP: Setting up the symmetry group for a 
 simple cubic supercell.


 Subroutine GETGRP returns: Found  1 space group operations
 (whereof  1 operations were pure point group operations)
 out of a pool of 48 trial point group operations.


The dynamic configuration has the point symmetry C_1 .


Analysis of constrained symmetry for selective dynamics:
=====================================================================
 Subroutine PRICEL returns:
 Original cell was already a primitive cell.
 

 Routine SETGRP: Setting up the symmetry group for a 
 simple cubic supercell.


 Subroutine GETGRP returns: Found  1 space group operations
 (whereof  1 operations were pure point group operations)
 out of a pool of 48 trial point group operations.


The constrained configuration has the point symmetry C_1 .
 
 
 KPOINTS: k-points                                

Automatic generation of k-mesh.
Space group operators:
 irot       det(A)        alpha          n_x          n_y          n_z        tau_x        tau_y        tau_z
    1     1.000000     0.000000     1.000000     0.000000     0.000000     0.000000     0.000000     0.000000
 
 Subroutine IBZKPT returns following result:
 ===========================================
 
 Found     63 irreducible k-points:
 
 Following reciprocal coordinates:
            Coordinates               Weight
  0.000000  0.000000  0.000000      1.000000
  0.200000  0.000000  0.000000      2.000000
  0.400000  0.000000  0.000000      2.000000
  0.000000  0.200000  0.000000      2.000000
  0.200000  0.200000  0.000000      2.000000
  0.400000  0.200000  0.000000      2.000000
 -0.400000  0.200000  0.000000      2.000000
 -0.200000  0.200000  0.000000      2.000000
  0.000000  0.400000  0.000000      2.000000
  0.200000  0.400000  0.000000      2.000000
  0.400000  0.400000  0.000000      2.000000
 -0.400000  0.400000  0.000000      2.000000
 -0.200000  0.400000  0.000000      2.000000
  0.000000  0.000000  0.200000      2.000000
  0.200000  0.000000  0.200000      2.000000
  0.400000  0.000000  0.200000      2.000000
 -0.400000  0.000000  0.200000      2.000000
 -0.200000  0.000000  0.200000      2.000000
  0.000000  0.200000  0.200000      2.000000
  0.200000  0.200000  0.200000      2.000000
  0.400000  0.200000  0.200000      2.000000
 -0.400000  0.200000  0.200000      2.000000
 -0.200000  0.200000  0.200000      2.000000
  0.000000  0.400000  0.200000      2.000000
  0.200000  0.400000  0.200000      2.000000
  0.400000  0.400000  0.200000      2.000000
 -0.400000  0.400000  0.200000      2.000000
 -0.200000  0.400000  0.200000      2.000000
  0.000000 -0.400000  0.200000      2.000000
  0.200000 -0.400000  0.200000      2.000000
  0.400000 -0.400000  0.200000      2.000000
 -0.400000 -0.400000  0.200000      2.000000
 -0.200000 -0.400000  0.200000      2.000000
  0.000000 -0.200000  0.200000      2.000000
  0.200000 -0.200000  0.200000      2.000000
  0.400000 -0.200000  0.200000      2.000000
 -0.400000 -0.200000  0.200000      2.000000
 -0.200000 -0.200000  0.200000      2.000000
  0.000000  0.000000  0.400000      2.000000
  0.200000  0.000000  0.400000      2.000000
  0.400000  0.000000  0.400000      2.000000
 -0.400000  0.000000  0.400000      2.000000
 -0.200000  0.000000  0.400000      2.000000
  0.000000  0.200000  0.400000      2.000000
  0.200000  0.200000  0.400000      2.000000
  0.400000  0.200000  0.400000      2.000000
 -0.400000  0.200000  0.400000      2.000000
 -0.200000  0.200000  0.400000      2.000000
  0.000000  0.400000  0.400000      2.000000
  0.200000  0.400000  0.400000      2.000000
  0.400000  0.400000  0.400000      2.000000
 -0.400000  0.400000  0.400000      2.000000
 -0.200000  0.400000  0.400000      2.000000
  0.000000 -0.400000  0.400000      2.000000
  0.200000 -0.400000  0.400000      2.000000
  0.400000 -0.400000  0.400000      2.000000
 -0.400000 -0.400000  0.400000      2.000000
 -0.200000 -0.400000  0.400000      2.000000
  0.000000 -0.200000  0.400000      2.000000
  0.200000 -0.200000  0.400000      2.000000
  0.400000 -0.200000  0.400000      2.000000
 -0.400000 -0.200000  0.400000      2.000000
 -0.200000 -0.200000  0.400000      2.000000
 
 Following cartesian coordinates:
            Coordinates               Weight
  0.000000  0.000000  0.000000      1.000000
  0.200000  0.000000  0.000000      2.000000
  0.400000  0.000000  0.000000      2.000000
  0.000000  0.200000  0.000000      2.000000
  0.200000  0.200000  0.000000      2.000000
  0.400000  0.200000  0.000000      2.000000
 -0.400000  0.200000  0.000000      2.000000
 -0.200000  0.200000  0.000000      2.000000
  0.000000  0.400000  0.000000      2.000000
  0.200000  0.400000  0.000000      2.000000
  0.400000  0.400000  0.000000      2.000000
 -0.400000  0.400000  0.000000      2.000000
 -0.200000  0.400000  0.000000      2.000000
  0.000000  0.000000  0.200000      2.000000
  0.200000  0.000000  0.200000      2.000000
  0.400000  0.000000  0.200000      2.000000
 -0.400000  0.000000  0.200000      2.000000
 -0.200000  0.000000  0.200000      2.000000
  0.000000  0.200000  0.200000      2.000000
  0.200000  0.200000  0.200000      2.000000
  0.400000  0.200000  0.200000      2.000000
 -0.400000  0.200000  0.200000      2.000000
 -0.200000  0.200000  0.200000      2.000000
  0.000000  0.400000  0.200000      2.000000
  0.200000  0.400000  0.200000      2.000000
  0.400000  0.400000  0.200000      2.000000
 -0.400000  0.400000  0.200000      2.000000
 -0.200000  0.400000  0.200000      2.000000
  0.000000 -0.400000  0.200000      2.000000
  0.200000 -0.400000  0.200000      2.000000
  0.400000 -0.400000  0.200000      2.000000
 -0.400000 -0.400000  0.200000      2.000000
 -0.200000 -0.400000  0.200000      2.000000
  0.000000 -0.200000  0.200000      2.000000
  0.200000 -0.200000  0.200000      2.000000
  0.400000 -0.200000  0.200000      2.000000
 -0.400000 -0.200000  0.200000      2.000000
 -0.200000 -0.200000  0.200000      2.000000
  0.000000  0.000000  0.400000      2.000000
  0.200000  0.000000  0.400000      2.000000
  0.400000  0.000000  0.400000      2.000000
 -0.400000  0.000000  0.400000      2.000000
 -0.200000  0.000000  0.400000      2.000000
  0.000000  0.200000  0.400000      2.000000
  0.200000  0.200000  0.400000      2.000000
  0.400000  0.200000  0.400000      2.000000
 -0.400000  0.200000  0.400000      2.000000
 -0.200000  0.200000  0.400000      2.000000
  0.000000  0.400000  0.400000      2.000000
  0.200000  0.400000  0.400000      2.000000
  0.400000  0.400000  0.400000      2.000000
 -0.400000  0.400000  0.400000      2.000000
 -0.200000  0.400000  0.400000      2.000000
  0.000000 -0.400000  0.400000      2.000000
  0.200000 -0.400000  0.400000      2.000000
  0.400000 -0.400000  0.400000      2.000000
 -0.400000 -0.400000  0.400000      2.000000
 -0.200000 -0.400000  0.400000      2.000000
  0.000000 -0.200000  0.400000      2.000000
  0.200000 -0.200000  0.400000      2.000000
  0.400000 -0.200000  0.400000      2.000000
 -0.400000 -0.200000  0.400000      2.000000
 -0.200000 -0.200000  0.400000      2.000000
 


--------------------------------------------------------------------------------------------------------




 Dimension of arrays:
   k-points           NKPTS =     63   k-points in BZ     NKDIM =     63   number of bands    NBANDS=     22
   number of dos      NEDOS =    301   number of ions     NIONS =      5
   non local maximal  LDIM  =      6   non local SUM 2l+1 LMDIM =     18
   total plane-waves  NPLWV =   8000
   max r-space proj   IRMAX =      1   max aug-charges    IRDMAX=   9776
   dimension x,y,z NGX =    20 NGY =   20 NGZ =   20
   dimension x,y,z NGXF=    40 NGYF=   40 NGZF=   40
   support grid    NGXF=    40 NGYF=   40 NGZF=   40
   ions per type =               1   1   3
 NGX,Y,Z   is equivalent  to a cutoff of   8.56,  8.56,  8.56 a.u.
 NGXF,Y,Z  is equivalent  to a cutoff of  17.13, 17.13, 17.13 a.u.


 I would recommend the setting:
   dimension x,y,z NGX =    19 NGY =   19 NGZ =   19
 SYSTEM =  unknown system                          
 POSCAR =  CaTiO3                                  

 Startparameter for this run:
   NWRITE =      2    write-flag & timer
   PREC   = normal    normal or accurate (medium, high low for compatibility)
   ISTART =      0    job   : 0-new  1-cont  2-samecut
   ICHARG =      2    charge: 1-file 2-atom 10-const
   ISPIN  =      1    spin polarized calculation?
   LNONCOLLINEAR =      F non collinear calculations
   LSORBIT =      F    spin-orbit coupling
   INIWAV =      1    electr: 0-lowe 1-rand  2-diag
   LASPH  =      F    aspherical Exc in radial PAW
   METAGGA=      F    non-selfconsistent MetaGGA calc.

 Electronic Relaxation 1
   ENCUT  =  400.0 eV  29.40 Ry    5.42 a.u.   6.33  6.33  6.33*2*pi/ulx,y,z
   ENINI  =  400.0     initial cutoff
   ENAUG  =  605.4 eV  augmentation charge cutoff
   NELM   =     60;   NELMIN=  2; NELMDL= -5     # of ELM steps 
   EDIFF  = 0.1E-03   stopping-criterion for ELM
   LREAL  =      F    real-space projection
   NLSPLINE    = F    spline interpolate recip. space projectors
   LCOMPAT=      F    compatible to vasp.4.4
   GGA_COMPAT  = T    GGA compatible to vasp.4.4-vasp.4.6
   LMAXPAW     = -100 max onsite density
   LMAXMIX     =    2 max onsite mixed and CHGCAR
   VOSKOWN=      0    Vosko Wilk Nusair interpolation
   ROPT   =    0.00000   0.00000   0.00000
 Ionic relaxation
   EDIFFG = 0.1E-02   stopping-criterion for IOM
   NSW    =   1024    number of steps for IOM
   NBLOCK =      1;   KBLOCK =   1024    inner block; outer block 
   IBRION =      2    ionic relax: 0-MD 1-quasi-New 2-CG
   NFREE  =      1    steps in history (QN), initial steepest desc. (CG)
   ISIF   =      2    stress and relaxation
   IWAVPR =     11    prediction:  0-non 1-charg 2-wave 3-comb
   ISYM   =      2    0-nonsym 1-usesym 2-fastsym
   LCORR  =      T    Harris-Foulkes like correction to forces

   POTIM  = 0.5000    time-step for ionic-motion
   TEIN   =    0.0    initial temperature
   TEBEG  =    0.0;   TEEND  =   0.0 temperature during run
   SMASS  =  -3.00    Nose mass-parameter (am)
   estimated Nose-frequenzy (Omega)   =  0.10E-29 period in steps =****** mass=  -0.344E-27a.u.
   SCALEE = 1.0000    scale energy and forces
   NPACO  =    256;   APACO  = 16.0  distance and # of slots for P.C.
   PSTRESS=    0.0 pullay stress

  Mass of Ions in am
   POMASS =  47.88 40.08 16.00
  Ionic Valenz
   ZVAL   =  10.00  8.00  6.00
  Atomic Wigner-Seitz radii
   RWIGS  =  -1.00 -1.00 -1.00
  virtual crystal weights 
   VCA    =   1.00  1.00  1.00
   NELECT =      36.0000    total number of electrons
   NUPDOWN=      -1.0000    fix difference up-down

 DOS related values:
   EMIN   =  10.00;   EMAX   =-10.00  energy-range for DOS
   EFERMI =   0.00
   ISMEAR =     1;   SIGMA  =   0.20  broadening in eV -4-tet -1-fermi 0-gaus

 Electronic relaxation 2 (details)
   IALGO  =     38    algorithm
   LDIAG  =      T    sub-space diagonalisation (order eigenvalues)
   LSUBROT=      F    optimize rotation matrix (better conditioning)
   TURBO    =      0    0=normal 1=particle mesh
   IRESTART =      0    0=no restart 2=restart with 2 vectors
   NREBOOT  =      0    no. of reboots
   NMIN     =      0    reboot dimension
   EREF     =   0.00    reference energy to select bands
   IMIX   =      4    mixing-type and parameters
     AMIX     =   0.40;   BMIX     =  1.00
     AMIX_MAG =   1.60;   BMIX_MAG =  1.00
     AMIN     =   0.10
     WC   =   100.;   INIMIX=   1;  MIXPRE=   1;  MAXMIX= -45

 Intra band minimization:
   WEIMIN = 0.0010     energy-eigenvalue tresh-hold
   EBREAK =  0.11E-05  absolut break condition
   DEPER  =   0.30     relativ break condition  

   TIME   =   0.40     timestep for ELM

  volume/ion in A,a.u.               =      11.70        78.97
  Fermi-wavevector in a.u.,A,eV,Ry     =   1.392401  2.631257 26.378723  1.938781
  Thomas-Fermi vector in A             =   2.516148
 
 Write flags
   LWAVE  =      T    write WAVECAR
   LCHARG =      T    write CHGCAR
   LVTOT  =      F    write LOCPOT, total local potential
   LVHAR  =      F    write LOCPOT, Hartree potential only
   LELF   =      F    write electronic localiz. function (ELF)
   LORBIT =      0    0 simple, 1 ext, 2 COOP (PROOUT)


 Dipole corrections
   LMONO  =      F    monopole corrections only (constant potential shift)
   LDIPOL =      F    correct potential (dipole corrections)
   IDIPOL =      0    1-x, 2-y, 3-z, 4-all directions 
   EPSILON=  1.0000000 bulk dielectric constant

 Exchange correlation treatment:
   GGA     =    --    GGA type
   LEXCH   =     8    internal setting for exchange type
   VOSKOWN=      0    Vosko Wilk Nusair interpolation
   LHFCALC =     F    Hartree Fock is set to
   LHFONE  =     F    Hartree Fock one center treatment
   AEXX    =    0.0000 exact exchange contribution

 Linear response parameters
   LEPSILON=     F    determine dielectric tensor
   LRPA    =     F    only Hartree local field effects (RPA)
   LNABLA  =     F    use nabla operator in PAW spheres
   LVEL    =     F    velocity operator in full k-point grid
   LINTERFAST=   F  fast interpolation
   KINTER  =     0    interpolate to denser k-point grid
   CSHIFT  =0.1000    complex shift for real part using Kramers Kronig
   OMEGAMAX=  -1.0    maximum frequency
   DEG_THRESHOLD= 0.2000000E-02 threshold for treating states as degnerate
   RTIME   =    0.100 relaxation time in fs

 Orbital magnetization related:
   ORBITALMAG=     F  switch on orbital magnetization
   LCHIMAG   =     F  perturbation theory with respect to B field
   DQ        =  0.001000  dq finite difference perturbation B field



--------------------------------------------------------------------------------------------------------


 conjugate gradient relaxation of ions
   using selective dynamics as specified on POSCAR
 charge density and potential will be updated during run
 non-spin polarized calculation
 Variant of blocked Davidson
 Davidson routine will perform the subspace rotation
 perform sub-space diagonalisation
    after iterative eigenvector-optimisation
 modified Broyden-mixing scheme, WC =      100.0
 initial mixing is a Kerker type mixing with AMIX =  0.4000 and BMIX =      1.0000
 Hartree-type preconditioning will be used
 using additional bands            4
 reciprocal scheme for non local part
 use partial core corrections
 calculate Harris-corrections to forces 
   (improved forces if not selfconsistent)
 use gradient corrections 
 use of overlap-Matrix (Vanderbilt PP)
 Methfessel and Paxton  Order N= 1 SIGMA  =   0.20


--------------------------------------------------------------------------------------------------------


  energy-cutoff  :      400.00
  volume of cell :       58.51
      direct lattice vectors                 reciprocal lattice vectors
     3.882200000  0.000000000  0.000000000     0.257585905  0.000000000  0.000000000
     0.000000000  3.882200000  0.000000000     0.000000000  0.257585905  0.000000000
     0.000000000  0.000000000  3.882200000     0.000000000  0.000000000  0.257585905

  length of vectors
     3.882200000  3.882200000  3.882200000     0.257585905  0.257585905  0.257585905


 
 k-points in units of 2pi/SCALE and weight: k-points                                
   0.00000000  0.00000000  0.00000000       0.008
   0.20000000  0.00000000  0.00000000       0.016
   0.40000000  0.00000000  0.00000000       0.016
   0.00000000  0.20000000  0.00000000       0.016
   0.20000000  0.20000000  0.00000000       0.016
   0.40000000  0.20000000  0.00000000       0.016
  -0.40000000  0.20000000  0.00000000       0.016
  -0.20000000  0.20000000  0.00000000       0.016
   0.00000000  0.40000000  0.00000000       0.016
   0.20000000  0.40000000  0.00000000       0.016
   0.40000000  0.40000000  0.00000000       0.016
  -0.40000000  0.40000000  0.00000000       0.016
  -0.20000000  0.40000000  0.00000000       0.016
   0.00000000  0.00000000  0.20000000       0.016
   0.20000000  0.00000000  0.20000000       0.016
   0.40000000  0.00000000  0.20000000       0.016
  -0.40000000  0.00000000  0.20000000       0.016
  -0.20000000  0.00000000  0.20000000       0.016
   0.00000000  0.20000000  0.20000000       0.016
   0.20000000  0.20000000  0.20000000       0.016
   0.40000000  0.20000000  0.20000000       0.016
  -0.40000000  0.20000000  0.20000000       0.016
  -0.20000000  0.20000000  0.20000000       0.016
   0.00000000  0.40000000  0.20000000       0.016
   0.20000000  0.40000000  0.20000000       0.016
   0.40000000  0.40000000  0.20000000       0.016
  -0.40000000  0.40000000  0.20000000       0.016
  -0.20000000  0.40000000  0.20000000       0.016
   0.00000000 -0.40000000  0.20000000       0.016
   0.20000000 -0.40000000  0.20000000       0.016
   0.40000000 -0.40000000  0.20000000       0.016
  -0.40000000 -0.40000000  0.20000000       0.016
  -0.20000000 -0.40000000  0.20000000       0.016
   0.00000000 -0.20000000  0.20000000       0.016
   0.20000000 -0.20000000  0.20000000       0.016
   0.40000000 -0.20000000  0.20000000       0.016
  -0.40000000 -0.20000000  0.20000000       0.016
  -0.20000000 -0.20000000  0.20000000       0.016
   0.00000000  0.00000000  0.40000000       0.016
   0.20000000  0.00000000  0.40000000       0.016
   0.40000000  0.00000000  0.40000000       0.016
  -0.40000000  0.00000000  0.40000000       0.016
  -0.20000000  0.00000000  0.40000000       0.016
   0.00000000  0.20000000  0.40000000       0.016
   0.20000000  0.20000000  0.40000000       0.016
   0.40000000  0.20000000  0.40000000       0.016
  -0.40000000  0.20000000  0.40000000       0.016
  -0.20000000  0.20000000  0.40000000       0.016
   0.00000000  0.40000000  0.40000000       0.016
   0.20000000  0.40000000  0.40000000       0.016
   0.40000000  0.40000000  0.40000000       0.016
  -0.40000000  0.40000000  0.40000000       0.016
  -0.20000000  0.40000000  0.40000000       0.016
   0.00000000 -0.40000000  0.40000000       0.016
   0.20000000 -0.40000000  0.40000000       0.016
   0.40000000 -0.40000000  0.40000000       0.016
  -0.40000000 -0.40000000  0.40000000       0.016
  -0.20000000 -0.40000000  0.40000000       0.016
   0.00000000 -0.20000000  0.40000000       0.016
   0.20000000 -0.20000000  0.40000000       0.016
   0.40000000 -0.20000000  0.40000000       0.016
  -0.40000000 -0.20000000  0.40000000       0.016
  -0.20000000 -0.20000000  0.40000000       0.016
 
 k-points in reciprocal lattice and weights: k-points                                
   0.00000000  0.00000000  0.00000000       0.008
   0.20000000  0.00000000  0.00000000       0.016
   0.40000000  0.00000000  0.00000000       0.016
   0.00000000  0.20000000  0.00000000       0.016
   0.20000000  0.20000000  0.00000000       0.016
   0.40000000  0.20000000  0.00000000       0.016
  -0.40000000  0.20000000  0.00000000       0.016
  -0.20000000  0.20000000  0.00000000       0.016
   0.00000000  0.40000000  0.00000000       0.016
   0.20000000  0.40000000  0.00000000       0.016
   0.40000000  0.40000000  0.00000000       0.016
  -0.40000000  0.40000000  0.00000000       0.016
  -0.20000000  0.40000000  0.00000000       0.016
   0.00000000  0.00000000  0.20000000       0.016
   0.20000000  0.00000000  0.20000000       0.016
   0.40000000  0.00000000  0.20000000       0.016
  -0.40000000  0.00000000  0.20000000       0.016
  -0.20000000  0.00000000  0.20000000       0.016
   0.00000000  0.20000000  0.20000000       0.016
   0.20000000  0.20000000  0.20000000       0.016
   0.40000000  0.20000000  0.20000000       0.016
  -0.40000000  0.20000000  0.20000000       0.016
  -0.20000000  0.20000000  0.20000000       0.016
   0.00000000  0.40000000  0.20000000       0.016
   0.20000000  0.40000000  0.20000000       0.016
   0.40000000  0.40000000  0.20000000       0.016
  -0.40000000  0.40000000  0.20000000       0.016
  -0.20000000  0.40000000  0.20000000       0.016
   0.00000000 -0.40000000  0.20000000       0.016
   0.20000000 -0.40000000  0.20000000       0.016
   0.40000000 -0.40000000  0.20000000       0.016
  -0.40000000 -0.40000000  0.20000000       0.016
  -0.20000000 -0.40000000  0.20000000       0.016
   0.00000000 -0.20000000  0.20000000       0.016
   0.20000000 -0.20000000  0.20000000       0.016
   0.40000000 -0.20000000  0.20000000       0.016
  -0.40000000 -0.20000000  0.20000000       0.016
  -0.20000000 -0.20000000  0.20000000       0.016
   0.00000000  0.00000000  0.40000000       0.016
   0.20000000  0.00000000  0.40000000       0.016
   0.40000000  0.00000000  0.40000000       0.016
  -0.40000000  0.00000000  0.40000000       0.016
  -0.20000000  0.00000000  0.40000000       0.016
   0.00000000  0.20000000  0.40000000       0.016
   0.20000000  0.20000000  0.40000000       0.016
   0.40000000  0.20000000  0.40000000       0.016
  -0.40000000  0.20000000  0.40000000       0.016
  -0.20000000  0.20000000  0.40000000       0.016
   0.00000000  0.40000000  0.40000000       0.016
   0.20000000  0.40000000  0.40000000       0.016
   0.40000000  0.40000000  0.40000000       0.016
  -0.40000000  0.40000000  0.40000000       0.016
  -0.20000000  0.40000000  0.40000000       0.016
   0.00000000 -0.40000000  0.40000000       0.016
   0.20000000 -0.40000000  0.40000000       0.016
   0.40000000 -0.40000000  0.40000000       0.016
  -0.40000000 -0.40000000  0.40000000       0.016
  -0.20000000 -0.40000000  0.40000000       0.016
   0.00000000 -0.20000000  0.40000000       0.016
   0.20000000 -0.20000000  0.40000000       0.016
   0.40000000 -0.20000000  0.40000000       0.016
  -0.40000000 -0.20000000  0.40000000       0.016
  -0.20000000 -0.20000000  0.40000000       0.016
 
 position of ions in fractional coordinates (direct lattice) 
   0.00000000  0.00000000  0.00000000
   0.51000000  0.52000000  0.53000000
   0.50000000  0.00000000  0.00000000
   0.00000000  0.50000000  0.00000000
   0.00000000  0.00000000  0.50000000
 
 position of ions in cartesian coordinates  (Angst):
   0.00000000  0.00000000  0.00000000
   1.97992200  2.01874400  2.05756600
   1.94110000  0.00000000  0.00000000
   0.00000000  1.94110000  0.00000000
   0.00000000  0.00000000  1.94110000
 


--------------------------------------------------------------------------------------------------------


 k-point  1 :   0.0000 0.0000 0.0000  plane waves:    1045
 k-point  2 :   0.2000 0.0000 0.0000  plane waves:    1069
 k-point  3 :   0.4000 0.0000 0.0000  plane waves:    1064
 k-point  4 :   0.0000 0.2000 0.0000  plane waves:    1069
 k-point  5 :   0.2000 0.2000 0.0000  plane waves:    1073
 k-point  6 :   0.4000 0.2000 0.0000  plane waves:    1072
 k-point  7 :  -0.4000 0.2000 0.0000  plane waves:    1072
 k-point  8 :  -0.2000 0.2000 0.0000  plane waves:    1073
 k-point  9 :   0.0000 0.4000 0.0000  plane waves:    1064
 k-point 10 :   0.2000 0.4000 0.0000  plane waves:    1072
 k-point 11 :   0.4000 0.4000 0.0000  plane waves:    1063
 k-point 12 :  -0.4000 0.4000 0.0000  plane waves:    1063
 k-point 13 :  -0.2000 0.4000 0.0000  plane waves:    1072
 k-point 14 :   0.0000 0.0000 0.2000  plane waves:    1069
 k-point 15 :   0.2000 0.0000 0.2000  plane waves:    1073
 k-point 16 :   0.4000 0.0000 0.2000  plane waves:    1072
 k-point 17 :  -0.4000 0.0000 0.2000  plane waves:    1072
 k-point 18 :  -0.2000 0.0000 0.2000  plane waves:    1073
 k-point 19 :   0.0000 0.2000 0.2000  plane waves:    1073
 k-point 20 :   0.2000 0.2000 0.2000  plane waves:    1066
 k-point 21 :   0.4000 0.2000 0.2000  plane waves:    1068
 k-point 22 :  -0.4000 0.2000 0.2000  plane waves:    1068
 k-point 23 :  -0.2000 0.2000 0.2000  plane waves:    1066
 k-point 24 :   0.0000 0.4000 0.2000  plane waves:    1072
 k-point 25 :   0.2000 0.4000 0.2000  plane waves:    1068
 k-point 26 :   0.4000 0.4000 0.2000  plane waves:    1054
 k-point 27 :  -0.4000 0.4000 0.2000  plane waves:    1054
 k-point 28 :  -0.2000 0.4000 0.2000  plane waves:    1068
 k-point 29 :   0.0000-0.4000 0.2000  plane waves:    1072
 k-point 30 :   0.2000-0.4000 0.2000  plane waves:    1068
 k-point 31 :   0.4000-0.4000 0.2000  plane waves:    1054
 k-point 32 :  -0.4000-0.4000 0.2000  plane waves:    1054
 k-point 33 :  -0.2000-0.4000 0.2000  plane waves:    1068
 k-point 34 :   0.0000-0.2000 0.2000  plane waves:    1073
 k-point 35 :   0.2000-0.2000 0.2000  plane waves:    1066
 k-point 36 :   0.4000-0.2000 0.2000  plane waves:    1068
 k-point 37 :  -0.4000-0.2000 0.2000  plane waves:    1068
 k-point 38 :  -0.2000-0.2000 0.2000  plane waves:    1066
 k-point 39 :   0.0000 0.0000 0.4000  plane waves:    1064
 k-point 40 :   0.2000 0.0000 0.4000  plane waves:    1072
 k-point 41 :   0.4000 0.0000 0.4000  plane waves:    1063
 k-point 42 :  -0.4000 0.0000 0.4000  plane waves:    1063
 k-point 43 :  -0.2000 0.0000 0.4000  plane waves:    1072
 k-point 44 :   0.0000 0.2000 0.4000  plane waves:    1072
 k-point 45 :   0.2000 0.2000 0.4000  plane waves:    1068
 k-point 46 :   0.4000 0.2000 0.4000  plane waves:    1054
 k-point 47 :  -0.4000 0.2000 0.4000  plane waves:    1054
 k-point 48 :  -0.2000 0.2000 0.4000  plane waves:    1068
 k-point 49 :   0.0000 0.4000 0.4000  plane waves:    1063
 k-point 50 :   0.2000 0.4000 0.4000  plane waves:    1054
 k-point 51 :   0.4000 0.4000 0.4000  plane waves:    1058
 k-point 52 :  -0.4000 0.4000 0.4000  plane waves:    1058
 k-point 53 :  -0.2000 0.4000 0.4000  plane waves:    1054
 k-point 54 :   0.0000-0.4000 0.4000  plane waves:    1063
 k-point 55 :   0.2000-0.4000 0.4000  plane waves:    1054
 k-point 56 :   0.4000-0.4000 0.4000  plane waves:    1058
 k-point 57 :  -0.4000-0.4000 0.4000  plane waves:    1058
 k-point 58 :  -0.2000-0.4000 0.4000  plane waves:    1054
 k-point 59 :   0.0000-0.2000 0.4000  plane waves:    1072
 k-point 60 :   0.2000-0.2000 0.4000  plane waves:    1068
 k-point 61 :   0.4000-0.2000 0.4000  plane waves:    1054
 k-point 62 :  -0.4000-0.2000 0.4000  plane waves:    1054
 k-point 63 :  -0.2000-0.2000 0.4000  plane waves:    1068

 maximum and minimum number of plane-waves per node :      1073     1045

 maximum number of plane-waves:      1073
 maximum index in each direction: 
   IXMAX=    6   IYMAX=    6   IZMAX=    6
   IXMIN=   -6   IYMIN=   -6   IZMIN=   -6

 WARNING: aliasing errors must be expected set NGX to  26 to avoid them
 WARNING: aliasing errors must be expected set NGY to  26 to avoid them
 WARNING: aliasing errors must be expected set NGZ to  26 to avoid them
 aliasing errors are usually negligible using standard VASP settings
 and one can safely disregard these warnings

 serial   3D FFT for wavefunctions
 parallel 3D FFT for charge:
    minimum data exchange during FFTs selected (reduces bandwidth)


 total amount of memory used by VASP on root node    61338. kBytes
========================================================================

   base      :      30000. kBytes
   nonl-proj :      29425. kBytes
   fftplans  :        145. kBytes
   grid      :        538. kBytes
   one-center:         77. kBytes
   wavefun   :       1153. kBytes
 
     INWAV:  cpu time    0.00: real time    0.00
 Broyden mixing: mesh for mixing (old mesh)
   NGX = 13   NGY = 13   NGZ = 13
  (NGX  = 40   NGY  = 40   NGZ  = 40)
  gives a total of   2197 points

 initial charge density was supplied:
 charge density of overlapping atoms calculated
 number of electron      36.0000000 magnetization 
 keeping initial charge density in first step


--------------------------------------------------------------------------------------------------------


 Maximum index for augmentation-charges          528 (set IRDMAX)


--------------------------------------------------------------------------------------------------------


 First call to EWALD:  gamma=   0.457
 Maximum number of real-space cells 3x 3x 3
 Maximum number of reciprocal cells 3x 3x 3

 FEWALD executed in parallel
    FEWALD:  cpu time    0.00: real time    0.00


----------------------------------------- Iteration    1(   1)  ---------------------------------------


    POTLOK:  cpu time    0.00: real time    0.00
    SETDIJ:  cpu time    0.00: real time    0.00
     EDDAV:  cpu time    0.41: real time    0.41
       DOS:  cpu time    0.00: real time    0.00
    --------------------------------------------
      LOOP:  cpu time    0.42: real time    0.42

 eigenvalue-minimisations  :  2772
 total energy-change (2. order) : 0.2168865E+03  (-0.1662561E+04)
 number of electron      36.0000000 magnetization 
 augmentation part       36.0000000 magnetization 

 Free energy of the ion-electron system (eV)
  ---------------------------------------------------
  alpha Z        PSCENC =       166.69949767
  Ewald energy   TEWEN  =     -2275.33586813
  -Hartree energ DENC   =      -674.50809473
  -exchange      EXHF   =         0.00000000
  -V(xc)+E(xc)   XCENC  =       135.80392173
  PAW double counting   =      2297.08385515    -2300.16057493
  entropy T*S    EENTRO =         0.00383376
  eigenvalues    EBANDS =       -84.75283871
  atomic energy  EATOM  =      2952.05274943
  ---------------------------------------------------
  free energy    TOTEN  =       216.88648124 eV

  energy without entropy =      216.88264748  energy(sigma->0) =      216.88520332


--------------------------------------------------------------------------------------------------------




----------------------------------------- Iteration    1(   2)  ---------------------------------------


     EDDAV:  cpu time    0.87: real time    0.87
       DOS:  cpu time    0.00: real time    0.00
    --------------------------------------------
      LOOP:  cpu time    0.87: real time    0.88

 eigenvalue-minimisations  :  5258
 total energy-change (2. order) :-0.2596897E+03  (-0.2561968E+03)
 number of electron      36.0000000 magnetization 
 augmentation part       36.0000000 magnetization 

 Free energy of the ion-electron system (eV)
  ---------------------------------------------------
  alpha Z        PSCENC =       166.69949767
  Ewald energy   TEWEN  =     -2275.33586813
  -Hartree energ DENC   =      -674.50809473
  -exchange      EXHF   =         0.00000000
  -V(xc)+E(xc)   XCENC  =       135.80392173
  PAW double counting   =      2297.08385515    -2300.16057493
  entropy T*S    EENTRO =        -0.00065396
  eigenvalues    EBANDS =      -344.43804749
  atomic energy  EATOM  =      2952.05274943
  ---------------------------------------------------
  free energy    TOTEN  =       -42.80321526 eV

  energy without entropy =      -42.80256130  energy(sigma->0) =      -42.80299728


--------------------------------------------------------------------------------------------------------




----------------------------------------- Iteration    1(   3)  ---------------------------------------


     EDDAV:  cpu time    0.40: real time    0.40
       DOS:  cpu time    0.00: real time    0.00
    --------------------------------------------
      LOOP:  cpu time    0.40: real time    0.40

 eigenvalue-minimisations  :  2926
 total energy-change (2. order) :-0.7019175E+01  (-0.6771115E+01)
 number of electron      36.0000000 magnetization 
 augmentation part       36.0000000 magnetization 

 Free energy of the ion-electron system (eV)
  ---------------------------------------------------
  alpha Z        PSCENC =       166.69949767
  Ewald energy   TEWEN  =     -2275.33586813
  -Hartree energ DENC   =      -674.50809473
  -exchange      EXHF   =         0.00000000
  -V(xc)+E(xc)   XCENC  =       135.80392173
  PAW double counting   =      2297.08385515    -2300.16057493
  entropy T*S    EENTRO =         0.00846359
  eigenvalues    EBANDS =      -351.46633962
  atomic energy  EATOM  =      2952.05274943
  ---------------------------------------------------
  free energy    TOTEN  =       -49.82238984 eV

  energy without entropy =      -49.83085343  energy(sigma->0) =      -49.82521103


--------------------------------------------------------------------------------------------------------




----------------------------------------- Iteration    1(   4)  ---------------------------------------


     EDDAV:  cpu time    0.81: real time    0.81
       DOS:  cpu time    0.00: real time    0.00
    --------------------------------------------
      LOOP:  cpu time    0.81: real time    0.82

 eigenvalue-minimisations  :  5126
 total energy-change (2. order) :-0.9374658E-01  (-0.9346709E-01)
 number of electron      36.0000000 magnetization 
 augmentation part       36.0000000 magnetization 

 Free energy of the ion-electron system (eV)
  ---------------------------------------------------
  alpha Z        PSCENC =       166.69949767
  Ewald energy   TEWEN  =     -2275.33586813
  -Hartree energ DENC   =      -674.50809473
  -exchange      EXHF   =         0.00000000
  -V(xc)+E(xc)   XCENC  =       135.80392173
  PAW double counting   =      2297.08385515    -2300.16057493
  entropy T*S    EENTRO =         0.00789527
  eigenvalues    EBANDS =      -351.55951788
  atomic energy  EATOM  =      2952.05274943
  ---------------------------------------------------
  free energy    TOTEN  =       -49.91613642 eV

  energy without entropy =      -49.92403169  energy(sigma->0) =      -49.91876818


--------------------------------------------------------------------------------------------------------




----------------------------------------- Iteration    1(   5)  ---------------------------------------


     EDDAV:  cpu time    0.43: real time    0.43
       DOS:  cpu time    0.00: real time    0.00
    CHARGE:  cpu time    0.01: real time    0.01
    MIXING:  cpu time    0.00: real time    0.00
    --------------------------------------------
      LOOP:  cpu time    0.44: real time    0.44

 eigenvalue-minimisations  :  3212
 total energy-change (2. order) :-0.7436287E-03  (-0.7435695E-03)
 number of electron      36.0000018 magnetization 
 augmentation part       10.9369360 magnetization 

 Broyden mixing:
  rms(total) = 0.30931E+01    rms(broyden)= 0.30928E+01
  rms(prec ) = 0.53668E+01
  weight for this iteration     100.00

 Free energy of the ion-electron system (eV)
  ---------------------------------------------------
  alpha Z        PSCENC =       166.69949767
  Ewald energy   TEWEN  =     -2275.33586813
  -Hartree energ DENC   =      -674.50809473
  -exchange      EXHF   =         0.00000000
  -V(xc)+E(xc)   XCENC  =       135.80392173
  PAW double counting   =      2297.08385515    -2300.16057493
  entropy T*S    EENTRO =         0.00789285
  eigenvalues    EBANDS =      -351.56025908
  atomic energy  EATOM  =      2952.05274943
  ---------------------------------------------------
  free energy    TOTEN  =       -49.91688005 eV

  energy without entropy =      -49.92477289  energy(sigma->0) =      -49.91951100


--------------------------------------------------------------------------------------------------------




----------------------------------------- Iteration    1(   6)  ---------------------------------------


    POTLOK:  cpu time    0.00: real time    0.00
    SETDIJ:  cpu time    0.00: real time    0.00
     EDDAV:  cpu time    0.84: real time    0.84
       DOS:  cpu time    0.00: real time    0.00
    CHARGE:  cpu time    0.01: real time    0.01
    MIXING:  cpu time    0.00: real time    0.00
    --------------------------------------------
      LOOP:  cpu time    0.86: real time    0.87

 eigenvalue-minimisations  :  5258
 total energy-change (2. order) : 0.9313196E+01  (-0.8085214E+01)
 number of electron      35.9999979 magnetization 
 augmentation part       11.1285066 magnetization 

 Broyden mixing:
  rms(total) = 0.10166E+01    rms(broyden)= 0.10158E+01
  rms(prec ) = 0.15792E+01
  weight for this iteration     100.00

 eigenvalues of (default mixing * dielectric matrix)
  average eigenvalue GAMMA=   0.9853
  0.9853

 Free energy of the ion-electron system (eV)
  ---------------------------------------------------
  alpha Z        PSCENC =       166.69949767
  Ewald energy   TEWEN  =     -2275.33586813
  -Hartree energ DENC   =      -694.85177359
  -exchange      EXHF   =         0.00000000
  -V(xc)+E(xc)   XCENC  =       138.32457754
  PAW double counting   =      2776.94938531    -2782.77902341
  entropy T*S    EENTRO =         0.00705832
  eigenvalues    EBANDS =      -321.67028736
  atomic energy  EATOM  =      2952.05274943
  ---------------------------------------------------
  free energy    TOTEN  =       -40.60368420 eV

  energy without entropy =      -40.61074252  energy(sigma->0) =      -40.60603698


--------------------------------------------------------------------------------------------------------




----------------------------------------- Iteration    1(   7)  ---------------------------------------


    POTLOK:  cpu time    0.00: real time    0.00
    SETDIJ:  cpu time    0.00: real time    0.00
     EDDAV:  cpu time    0.50: real time    0.50
       DOS:  cpu time    0.00: real time    0.00
    CHARGE:  cpu time    0.01: real time    0.01
    MIXING:  cpu time    0.00: real time    0.00
    --------------------------------------------
      LOOP:  cpu time    0.52: real time    0.52

 eigenvalue-minimisations  :  3564
 total energy-change (2. order) : 0.4406467E+00  (-0.6771448E+00)
 number of electron      35.9999988 magnetization 
 augmentation part       11.0306366 magnetization 

 Broyden mixing:
  rms(total) = 0.79215E+00    rms(broyden)= 0.79213E+00
  rms(prec ) = 0.99968E+00
  weight for this iteration     100.00

 eigenvalues of (default mixing * dielectric matrix)
  average eigenvalue GAMMA=   1.7472
  0.7435  2.7509

 Free energy of the ion-electron system (eV)
  ---------------------------------------------------
  alpha Z        PSCENC =       166.69949767
  Ewald energy   TEWEN  =     -2275.33586813
  -Hartree energ DENC   =      -686.31833154
  -exchange      EXHF   =         0.00000000
  -V(xc)+E(xc)   XCENC  =       137.55421714
  PAW double counting   =      3005.40296663    -3011.16096533
  entropy T*S    EENTRO =         0.00680825
  eigenvalues    EBANDS =      -329.06411164
  atomic energy  EATOM  =      2952.05274943
  ---------------------------------------------------
  free energy    TOTEN  =       -40.16303753 eV

  energy without entropy =      -40.16984577  energy(sigma->0) =      -40.16530694


--------------------------------------------------------------------------------------------------------




----------------------------------------- Iteration    1(   8)  ---------------------------------------


    POTLOK:  cpu time    0.00: real time    0.00
    SETDIJ:  cpu time    0.00: real time    0.00
     EDDAV:  cpu time    0.69: real time    0.69
       DOS:  cpu time    0.00: real time    0.00
    CHARGE:  cpu time    0.01: real time    0.01
    MIXING:  cpu time    0.00: real time    0.00
    --------------------------------------------
      LOOP:  cpu time    0.70: real time    0.71

 eigenvalue-minimisations  :  4598
 total energy-change (2. order) :-0.1332604E+00  (-0.4640340E+00)
 number of electron      35.9999980 magnetization 
 augmentation part       11.2603048 magnetization 

 Broyden mixing:
  rms(total) = 0.58193E+00    rms(broyden)= 0.58189E+00
  rms(prec ) = 0.10633E+01
  weight for this iteration     100.00

 eigenvalues of (default mixing * dielectric matrix)
  average eigenvalue GAMMA=   1.2009
  2.3418  0.8112  0.4496

 Free energy of the ion-electron system (eV)
  ---------------------------------------------------
  alpha Z        PSCENC =       166.69949767
  Ewald energy   TEWEN  =     -2275.33586813
  -Hartree energ DENC   =      -679.98799661
  -exchange      EXHF   =         0.00000000
  -V(xc)+E(xc)   XCENC  =       137.47624756
  PAW double counting   =      3605.56929219    -3612.52793895
  entropy T*S    EENTRO =         0.00686512
  eigenvalues    EBANDS =      -334.24914620
  atomic energy  EATOM  =      2952.05274943
  ---------------------------------------------------
  free energy    TOTEN  =       -40.29629791 eV

  energy without entropy =      -40.30316303  energy(sigma->0) =      -40.29858628


--------------------------------------------------------------------------------------------------------




----------------------------------------- Iteration    1(   9)  ---------------------------------------


    POTLOK:  cpu time    0.00: real time    0.00
    SETDIJ:  cpu time    0.00: real time    0.00
     EDDAV:  cpu time    0.61: real time    0.61
       DOS:  cpu time    0.00: real time    0.00
    CHARGE:  cpu time    0.01: real time    0.01
    MIXING:  cpu time    0.00: real time    0.00
    --------------------------------------------
      LOOP:  cpu time    0.63: real time    0.63

 eigenvalue-minimisations  :  4290
 total energy-change (2. order) : 0.2167386E+00  (-0.9968134E-01)
 number of electron      35.9999983 magnetization 
 augmentation part       11.1586464 magnetization 

 Broyden mixing:
  rms(total) = 0.18225E+00    rms(broyden)= 0.18224E+00
  rms(prec ) = 0.32175E+00
  weight for this iteration     100.00

 eigenvalues of (default mixing * dielectric matrix)
  average eigenvalue GAMMA=   1.4347
  2.1760  2.1760  0.8441  0.5425

 Free energy of the ion-electron system (eV)
  ---------------------------------------------------
  alpha Z        PSCENC =       166.69949767
  Ewald energy   TEWEN  =     -2275.33586813
  -Hartree energ DENC   =      -682.59525497
  -exchange      EXHF   =         0.00000000
  -V(xc)+E(xc)   XCENC  =       137.51967195
  PAW double counting   =      3518.46052258    -3525.16274806
  entropy T*S    EENTRO =         0.00685952
  eigenvalues    EBANDS =      -331.72498935
  atomic energy  EATOM  =      2952.05274943
  ---------------------------------------------------
  free energy    TOTEN  =       -40.07955935 eV

  energy without entropy =      -40.08641887  energy(sigma->0) =      -40.08184586


--------------------------------------------------------------------------------------------------------




----------------------------------------- Iteration    1(  10)  ---------------------------------------


    POTLOK:  cpu time    0.00: real time    0.00
    SETDIJ:  cpu time    0.00: real time    0.00
     EDDAV:  cpu time    0.77: real time    0.77
       DOS:  cpu time    0.00: real time    0.00
    CHARGE:  cpu time    0.01: real time    0.01
    MIXING:  cpu time    0.00: real time    0.00
    --------------------------------------------
      LOOP:  cpu time    0.79: real time    0.80

 eigenvalue-minimisations  :  4972
 total energy-change (2. order) : 0.2216517E-01  (-0.2844250E-01)
 number of electron      35.9999985 magnetization 
 augmentation part       11.1055344 magnetization 

 Broyden mixing:
  rms(total) = 0.47650E-01    rms(broyden)= 0.47590E-01
  rms(prec ) = 0.74403E-01
  weight for this iteration     100.00

 eigenvalues of (default mixing * dielectric matrix)
  average eigenvalue GAMMA=   1.3530
  2.5664  1.6479  1.1219  0.8715  0.5570

 Free energy of the ion-electron system (eV)
  ---------------------------------------------------
  alpha Z        PSCENC =       166.69949767
  Ewald energy   TEWEN  =     -2275.33586813
  -Hartree energ DENC   =      -685.67381809
  -exchange      EXHF   =         0.00000000
  -V(xc)+E(xc)   XCENC  =       137.64440962
  PAW double counting   =      3485.95169140    -3492.53007100
  entropy T*S    EENTRO =         0.00690914
  eigenvalues    EBANDS =      -328.87289424
  atomic energy  EATOM  =      2952.05274943
  ---------------------------------------------------
  free energy    TOTEN  =       -40.05739418 eV

  energy without entropy =      -40.06430332  energy(sigma->0) =      -40.05969723


--------------------------------------------------------------------------------------------------------




----------------------------------------- Iteration    1(  11)  ---------------------------------------


    POTLOK:  cpu time    0.00: real time    0.00
    SETDIJ:  cpu time    0.00: real time    0.00
     EDDAV:  cpu time    0.53: real time    0.54
       DOS:  cpu time    0.00: real time    0.00
    CHARGE:  cpu time    0.01: real time    0.01
    MIXING:  cpu time    0.00: real time    0.00
    --------------------------------------------
      LOOP:  cpu time    0.56: real time    0.56

 eigenvalue-minimisations  :  3828
 total energy-change (2. order) : 0.6087616E-03  (-0.9643046E-03)
 number of electron      35.9999985 magnetization 
 augmentation part       11.1146444 magnetization 

 Broyden mixing:
  rms(total) = 0.66018E-02    rms(broyden)= 0.65980E-02
  rms(prec ) = 0.83963E-02
  weight for this iteration     100.00

 eigenvalues of (default mixing * dielectric matrix)
  average eigenvalue GAMMA=   1.4857
  2.5042  2.5042  1.5225  0.9555  0.8716  0.5564

 Free energy of the ion-electron system (eV)
  ---------------------------------------------------
  alpha Z        PSCENC =       166.69949767
  Ewald energy   TEWEN  =     -2275.33586813
  -Hartree energ DENC   =      -685.46210877
  -exchange      EXHF   =         0.00000000
  -V(xc)+E(xc)   XCENC  =       137.64508454
  PAW double counting   =      3507.76607109    -3514.37924202
  entropy T*S    EENTRO =         0.00690936
  eigenvalues    EBANDS =      -329.04987859
  atomic energy  EATOM  =      2952.05274943
  ---------------------------------------------------
  free energy    TOTEN  =       -40.05678542 eV

  energy without entropy =      -40.06369478  energy(sigma->0) =      -40.05908854


--------------------------------------------------------------------------------------------------------




----------------------------------------- Iteration    1(  12)  ---------------------------------------


    POTLOK:  cpu time    0.00: real time    0.00
    SETDIJ:  cpu time    0.00: real time    0.00
     EDDAV:  cpu time    0.58: real time    0.58
       DOS:  cpu time    0.00: real time    0.00
    --------------------------------------------
      LOOP:  cpu time    0.59: real time    0.59

 eigenvalue-minimisations  :  3982
 total energy-change (2. order) :-0.4619052E-04  (-0.2753449E-04)
 number of electron      35.9999985 magnetization 
 augmentation part       11.1146444 magnetization 

 Free energy of the ion-electron system (eV)
  ---------------------------------------------------
  alpha Z        PSCENC =       166.69949767
  Ewald energy   TEWEN  =     -2275.33586813
  -Hartree energ DENC   =      -685.55273171
  -exchange      EXHF   =         0.00000000
  -V(xc)+E(xc)   XCENC  =       137.65084524
  PAW double counting   =      3502.49627869    -3509.09683522
  entropy T*S    EENTRO =         0.00690942
  eigenvalues    EBANDS =      -328.97767702
  atomic energy  EATOM  =      2952.05274943
  ---------------------------------------------------
  free energy    TOTEN  =       -40.05683161 eV

  energy without entropy =      -40.06374103  energy(sigma->0) =      -40.05913475


--------------------------------------------------------------------------------------------------------




 average (electrostatic) potential at core
  the test charge radii are     1.0397  1.2658  0.7215
  (the norm of the test charge is              1.0000)
       1 -53.1508       2 -45.5885       3 -70.0957       4 -70.0930       5 -70.0891
 
 
 
 E-fermi :   3.6838     XC(G=0): -11.0066     alpha+bet :-13.2781


 k-point     1 :       0.0000    0.0000    0.0000
  band No.  band energies     occupation 
      1     -29.0423      2.00000
      2     -29.0413      2.00000
      3     -29.0394      2.00000
      4     -16.5713      2.00000
      5     -16.5635      2.00000
      6     -16.5618      2.00000
      7     -13.8722      2.00000
      8     -12.7861      2.00000
      9     -12.7743      2.00000
     10       0.6398      2.00000
     11       0.6441      2.00000
     12       0.6492      2.00000
     13       2.5405      2.00000
     14       2.5517      2.00000
     15       2.5717      2.00000
     16       3.2822      2.01559
     17       3.2829      2.01576
     18       3.2879      2.01706
     19       5.5572     -0.00000
     20       5.5766     -0.00000
     21       5.5776     -0.00000
     22       8.0484     -0.00000

 k-point     2 :       0.2000    0.0000    0.0000
  band No.  band energies     occupation 
      1     -29.0684      2.00000
      2     -29.0405      2.00000
      3     -29.0383      2.00000
      4     -16.6500      2.00000
      5     -16.5652      2.00000
      6     -16.5591      2.00000
      7     -13.6515      2.00000
      8     -12.7678      2.00000
      9     -12.6783      2.00000
     10       0.2184      2.00000
     11       0.6643      2.00000
     12       0.6739      2.00000
     13       2.0650      2.00000
     14       2.0786      2.00000
     15       2.2255      2.00000
     16       2.2673      2.00000
     17       3.1283      2.00061
     18       3.1325      2.00068
     19       5.6292     -0.00000
     20       6.3343     -0.00000
     21       6.3516     -0.00000
     22       8.0711     -0.00000

 k-point     3 :       0.4000    0.0000    0.0000
  band No.  band energies     occupation 
      1     -29.1106      2.00000
      2     -29.0387      2.00000
      3     -29.0366      2.00000
      4     -16.7776      2.00000
      5     -16.5586      2.00000
      6     -16.5519      2.00000
      7     -13.2952      2.00000
      8     -12.7491      2.00000
      9     -12.4903      2.00000
     10      -0.5617      2.00000
     11       0.8170      2.00000
     12       0.8242      2.00000
     13       1.1473      2.00000
     14       1.3259      2.00000
     15       1.3332      2.00000
     16       1.8854      2.00000
     17       3.0160      2.00002
     18       3.0272      2.00004
     19       5.7244     -0.00000
     20       7.3517     -0.00000
     21       7.3651     -0.00000
     22       8.0825     -0.00000

 k-point     4 :       0.0000    0.2000    0.0000
  band No.  band energies     occupation 
      1     -29.0676      2.00000
      2     -29.0410      2.00000
      3     -29.0386      2.00000
      4     -16.6519      2.00000
      5     -16.5640      2.00000
      6     -16.5581      2.00000
      7     -13.6521      2.00000
      8     -12.7712      2.00000
      9     -12.6745      2.00000
     10       0.2193      2.00000
     11       0.6668      2.00000
     12       0.6717      2.00000
     13       2.0696      2.00000
     14       2.0767      2.00000
     15       2.2254      2.00000
     16       2.2651      2.00000
     17       3.1263      2.00058
     18       3.1288      2.00062
     19       5.6256     -0.00000
     20       6.3400     -0.00000
     21       6.3507     -0.00000
     22       8.0701     -0.00000

 k-point     5 :       0.2000    0.2000    0.0000
  band No.  band energies     occupation 
      1     -29.0675      2.00000
      2     -29.0665      2.00000
      3     -29.0377      2.00000
      4     -16.6569      2.00000
      5     -16.6098      2.00000
      6     -16.5586      2.00000
      7     -13.4651      2.00000
      8     -12.7109      2.00000
      9     -12.6202      2.00000
     10       0.0023      2.00000
     11       0.4129      2.00000
     12       0.6873      2.00000
     13       1.1441      2.00000
     14       1.7983      2.00000
     15       2.1862      2.00000
     16       2.3511      2.00000
     17       2.8013      2.00000
     18       2.8084      2.00000
     19       6.2991     -0.00000
     20       6.4498     -0.00000
     21       6.6596     -0.00000
     22       8.5464     -0.00000

 k-point     6 :       0.4000    0.2000    0.0000
  band No.  band energies     occupation 
      1     -29.1097      2.00000
      2     -29.0650      2.00000
      3     -29.0360      2.00000
      4     -16.7450      2.00000
      5     -16.6061      2.00000
      6     -16.5509      2.00000
      7     -13.1866      2.00000
      8     -12.6608      2.00000
      9     -12.4387      2.00000
     10      -0.5877      2.00000
     11      -0.0698      2.00000
     12       0.5105      2.00000
     13       0.8190      2.00000
     14       1.2261      2.00000
     15       1.6128      2.00000
     16       2.2972      2.00000
     17       2.5826      2.00000
     18       2.8026      2.00000
     19       6.4269     -0.00000
     20       7.3640     -0.00000
     21       7.4061     -0.00000
     22       8.6868     -0.00000

 k-point     7 :      -0.4000    0.2000    0.0000
  band No.  band energies     occupation 
      1     -29.1097      2.00000
      2     -29.0650      2.00000
      3     -29.0360      2.00000
      4     -16.7448      2.00000
      5     -16.6063      2.00000
      6     -16.5509      2.00000
      7     -13.1867      2.00000
      8     -12.6607      2.00000
      9     -12.4389      2.00000
     10      -0.5870      2.00000
     11      -0.0698      2.00000
     12       0.5103      2.00000
     13       0.8177      2.00000
     14       1.2277      2.00000
     15       1.6143      2.00000
     16       2.2978      2.00000
     17       2.5825      2.00000
     18       2.8013      2.00000
     19       6.4267     -0.00000
     20       7.3635     -0.00000
     21       7.4072     -0.00000
     22       8.6868     -0.00000

 k-point     8 :      -0.2000    0.2000    0.0000
  band No.  band energies     occupation 
      1     -29.0675      2.00000
      2     -29.0665      2.00000
      3     -29.0377      2.00000
      4     -16.6559      2.00000
      5     -16.6107      2.00000
      6     -16.5585      2.00000
      7     -13.4651      2.00000
      8     -12.7109      2.00000
      9     -12.6206      2.00000
     10       0.0026      2.00000
     11       0.4142      2.00000
     12       0.6865      2.00000
     13       1.1449      2.00000
     14       1.7996      2.00000
     15       2.1882      2.00000
     16       2.3520      2.00000
     17       2.7976      2.00000
     18       2.8083      2.00000
     19       6.2998     -0.00000
     20       6.4481     -0.00000
     21       6.6620     -0.00000
     22       8.5464     -0.00000

 k-point     9 :       0.0000    0.4000    0.0000
  band No.  band energies     occupation 
      1     -29.1097      2.00000
      2     -29.0392      2.00000
      3     -29.0369      2.00000
      4     -16.7788      2.00000
      5     -16.5570      2.00000
      6     -16.5519      2.00000
      7     -13.2970      2.00000
      8     -12.7516      2.00000
      9     -12.4865      2.00000
     10      -0.5587      2.00000
     11       0.8165      2.00000
     12       0.8213      2.00000
     13       1.1471      2.00000
     14       1.3309      2.00000
     15       1.3352      2.00000
     16       1.8783      2.00000
     17       3.0149      2.00002
     18       3.0206      2.00003
     19       5.7219     -0.00000
     20       7.3566     -0.00000
     21       7.3638     -0.00000
     22       8.0818     -0.00000

 k-point    10 :       0.2000    0.4000    0.0000
  band No.  band energies     occupation 
      1     -29.1089      2.00000
      2     -29.0658      2.00000
      3     -29.0360      2.00000
      4     -16.7460      2.00000
      5     -16.6048      2.00000
      6     -16.5510      2.00000
      7     -13.1875      2.00000
      8     -12.6637      2.00000
      9     -12.4353      2.00000
     10      -0.5848      2.00000
     11      -0.0687      2.00000
     12       0.5055      2.00000
     13       0.8180      2.00000
     14       1.2291      2.00000
     15       1.6147      2.00000
     16       2.2937      2.00000
     17       2.5802      2.00000
     18       2.8007      2.00000
     19       6.4240     -0.00000
     20       7.3670     -0.00000
     21       7.4070     -0.00000
     22       8.6865     -0.00000

 k-point    11 :       0.4000    0.4000    0.0000
  band No.  band energies     occupation 
      1     -29.1085      2.00000
      2     -29.1075      2.00000
      3     -29.0343      2.00000
      4     -16.6985      2.00000
      5     -16.6804      2.00000
      6     -16.5433      2.00000
      7     -13.1149      2.00000
      8     -12.3973      2.00000
      9     -12.3411      2.00000
     10      -0.9114      2.00000
     11      -0.6259      2.00000
     12      -0.4122      2.00000
     13       0.8458      2.00000
     14       0.9993      2.00000
     15       1.7729      2.00000
     16       1.8520      2.00000
     17       2.1287      2.00000
     18       3.4632      2.06555
     19       7.3518     -0.00000
     20       7.3969     -0.00000
     21       7.7553     -0.00000
     22       9.0039     -0.00000

 k-point    12 :      -0.4000    0.4000    0.0000
  band No.  band energies     occupation 
      1     -29.1085      2.00000
      2     -29.1075      2.00000
      3     -29.0343      2.00000
      4     -16.6977      2.00000
      5     -16.6812      2.00000
      6     -16.5433      2.00000
      7     -13.1150      2.00000
      8     -12.3968      2.00000
      9     -12.3416      2.00000
     10      -0.9101      2.00000
     11      -0.6273      2.00000
     12      -0.4120      2.00000
     13       0.8432      2.00000
     14       1.0022      2.00000
     15       1.7731      2.00000
     16       1.8531      2.00000
     17       2.1285      2.00000
     18       3.4626      2.06584
     19       7.3515     -0.00000
     20       7.3968     -0.00000
     21       7.7557     -0.00000
     22       9.0040     -0.00000

 k-point    13 :      -0.2000    0.4000    0.0000
  band No.  band energies     occupation 
      1     -29.1089      2.00000
      2     -29.0658      2.00000
      3     -29.0360      2.00000
      4     -16.7457      2.00000
      5     -16.6049      2.00000
      6     -16.5510      2.00000
      7     -13.1876      2.00000
      8     -12.6636      2.00000
      9     -12.4355      2.00000
     10      -0.5841      2.00000
     11      -0.0686      2.00000
     12       0.5052      2.00000
     13       0.8167      2.00000
     14       1.2307      2.00000
     15       1.6163      2.00000
     16       2.2942      2.00000
     17       2.5800      2.00000
     18       2.7993      2.00000
     19       6.4239     -0.00000
     20       7.3664     -0.00000
     21       7.4082     -0.00000
     22       8.6864     -0.00000

 k-point    14 :       0.0000    0.0000    0.2000
  band No.  band energies     occupation 
      1     -29.0662      2.00000
      2     -29.0410      2.00000
      3     -29.0400      2.00000
      4     -16.6549      2.00000
      5     -16.5606      2.00000
      6     -16.5580      2.00000
      7     -13.6530      2.00000
      8     -12.7765      2.00000
      9     -12.6688      2.00000
     10       0.2206      2.00000
     11       0.6678      2.00000
     12       0.6711      2.00000
     13       2.0737      2.00000
     14       2.0778      2.00000
     15       2.2269      2.00000
     16       2.2592      2.00000
     17       3.1223      2.00053
     18       3.1239      2.00055
     19       5.6196     -0.00000
     20       6.3463     -0.00000
     21       6.3523     -0.00000
     22       8.0686     -0.00000

 k-point    15 :       0.2000    0.0000    0.2000
  band No.  band energies     occupation 
      1     -29.0675      2.00000
      2     -29.0652      2.00000
      3     -29.0390      2.00000
      4     -16.6588      2.00000
      5     -16.6102      2.00000
      6     -16.5559      2.00000
      7     -13.4661      2.00000
      8     -12.7151      2.00000
      9     -12.6153      2.00000
     10       0.0051      2.00000
     11       0.4127      2.00000
     12       0.6877      2.00000
     13       1.1443      2.00000
     14       1.7956      2.00000
     15       2.1790      2.00000
     16       2.3460      2.00000
     17       2.8048      2.00000
     18       2.8125      2.00000
     19       6.2961     -0.00000
     20       6.4502     -0.00000
     21       6.6625     -0.00000
     22       8.5454     -0.00000

 k-point    16 :       0.4000    0.0000    0.2000
  band No.  band energies     occupation 
      1     -29.1097      2.00000
      2     -29.0636      2.00000
      3     -29.0373      2.00000
      4     -16.7453      2.00000
      5     -16.6075      2.00000
      6     -16.5489      2.00000
      7     -13.1887      2.00000
      8     -12.6591      2.00000
      9     -12.4387      2.00000
     10      -0.5871      2.00000
     11      -0.0673      2.00000
     12       0.5172      2.00000
     13       0.8150      2.00000
     14       1.2202      2.00000
     15       1.6031      2.00000
     16       2.2949      2.00000
     17       2.5808      2.00000
     18       2.8154      2.00000
     19       6.4280     -0.00000
     20       7.3619     -0.00000
     21       7.4078     -0.00000
     22       8.6863     -0.00000

 k-point    17 :      -0.4000    0.0000    0.2000
  band No.  band energies     occupation 
      1     -29.1097      2.00000
      2     -29.0636      2.00000
      3     -29.0373      2.00000
      4     -16.7449      2.00000
      5     -16.6077      2.00000
      6     -16.5489      2.00000
      7     -13.1888      2.00000
      8     -12.6591      2.00000
      9     -12.4390      2.00000
     10      -0.5861      2.00000
     11      -0.0672      2.00000
     12       0.5168      2.00000
     13       0.8130      2.00000
     14       1.2226      2.00000
     15       1.6054      2.00000
     16       2.2957      2.00000
     17       2.5806      2.00000
     18       2.8134      2.00000
     19       6.4278     -0.00000
     20       7.3613     -0.00000
     21       7.4093     -0.00000
     22       8.6863     -0.00000

 k-point    18 :      -0.2000    0.0000    0.2000
  band No.  band energies     occupation 
      1     -29.0675      2.00000
      2     -29.0651      2.00000
      3     -29.0390      2.00000
      4     -16.6574      2.00000
      5     -16.6114      2.00000
      6     -16.5559      2.00000
      7     -13.4662      2.00000
      8     -12.7151      2.00000
      9     -12.6159      2.00000
     10       0.0056      2.00000
     11       0.4146      2.00000
     12       0.6865      2.00000
     13       1.1455      2.00000
     14       1.7975      2.00000
     15       2.1820      2.00000
     16       2.3472      2.00000
     17       2.8044      2.00000
     18       2.8072      2.00000
     19       6.2971     -0.00000
     20       6.4479     -0.00000
     21       6.6659     -0.00000
     22       8.5453     -0.00000

 k-point    19 :       0.0000    0.2000    0.2000
  band No.  band energies     occupation 
      1     -29.0669      2.00000
      2     -29.0648      2.00000
      3     -29.0398      2.00000
      4     -16.6605      2.00000
      5     -16.6101      2.00000
      6     -16.5543      2.00000
      7     -13.4666      2.00000
      8     -12.7175      2.00000
      9     -12.6123      2.00000
[...]
     17       3.3959      2.06888
     18       3.5294      1.71809
     19       7.9428     -0.00000
     20       8.0384     -0.00000
     21       8.0612     -0.00000
     22       9.5925      0.00000

 k-point    53 :      -0.2000    0.4000    0.4000
  band No.  band energies     occupation 
      1     -29.0337      2.00000
      2     -29.0219      2.00000
      3     -28.9678      2.00000
      4     -16.6504      2.00000
      5     -16.6197      2.00000
      6     -16.5338      2.00000
      7     -12.8751      2.00000
      8     -12.4376      2.00000
      9     -12.3875      2.00000
     10      -0.8040      2.00000
     11      -0.6088      2.00000
     12      -0.3835      2.00000
     13       0.0283      2.00000
     14       0.1888      2.00000
     15       1.0590      2.00000
     16       2.6802      2.00000
     17       2.7091      2.00000
     18       3.4474      2.01926
     19       7.5530     -0.00000
     20       7.6718     -0.00000
     21       7.9054     -0.00000
     22       9.7004      0.00000

 k-point    54 :       0.0000   -0.4000    0.4000
  band No.  band energies     occupation 
      1     -29.0350      2.00000
      2     -29.0231      2.00000
      3     -28.9414      2.00000
      4     -16.6668      2.00000
      5     -16.6403      2.00000
      6     -16.4936      2.00000
      7     -13.1033      2.00000
      8     -12.4250      2.00000
      9     -12.3646      2.00000
     10      -0.9563      2.00000
     11      -0.6650      2.00000
     12      -0.2966      2.00000
     13       0.7441      2.00000
     14       0.9447      2.00000
     15       1.7678      2.00000
     16       1.8334      2.00000
     17       2.1400      2.00000
     18       3.4245      2.05118
     19       7.4386     -0.00000
     20       7.5289     -0.00000
     21       7.8314     -0.00000
     22       9.0971      0.00000

 k-point    55 :       0.2000   -0.4000    0.4000
  band No.  band energies     occupation 
      1     -29.0338      2.00000
      2     -29.0218      2.00000
      3     -28.9678      2.00000
      4     -16.6486      2.00000
      5     -16.6220      2.00000
      6     -16.5336      2.00000
      7     -12.8746      2.00000
      8     -12.4370      2.00000
      9     -12.3884      2.00000
     10      -0.8460      2.00000
     11      -0.6455      2.00000
     12      -0.2781      2.00000
     13       0.0483      2.00000
     14       0.1694      2.00000
     15       1.0374      2.00000
     16       2.6771      2.00000
     17       2.7010      2.00000
     18       3.4441      2.02509
     19       7.5673     -0.00000
     20       7.6618     -0.00000
     21       7.9102     -0.00000
     22       9.7076      0.00000

 k-point    56 :       0.4000   -0.4000    0.4000
  band No.  band energies     occupation 
      1     -29.0317      2.00000
      2     -29.0199      2.00000
      3     -29.0099      2.00000
      4     -16.6210      2.00000
      5     -16.5969      2.00000
      6     -16.5901      2.00000
      7     -12.5215      2.00000
      8     -12.4273      2.00000
      9     -12.4139      2.00000
     10      -0.7848      2.00000
     11      -0.6050      2.00000
     12      -0.5048      2.00000
     13      -0.4728      2.00000
     14      -0.2589      2.00000
     15      -0.1773      2.00000
     16       3.3842      2.07080
     17       3.4064      2.06477
     18       3.5110      1.81424
     19       7.9461     -0.00000
     20       8.0361     -0.00000
     21       8.0594     -0.00000
     22       9.5566      0.00000

 k-point    57 :      -0.4000   -0.4000    0.4000
  band No.  band energies     occupation 
      1     -29.0318      2.00000
      2     -29.0198      2.00000
      3     -29.0100      2.00000
      4     -16.6210      2.00000
      5     -16.5964      2.00000
      6     -16.5905      2.00000
      7     -12.5232      2.00000
      8     -12.4223      2.00000
      9     -12.4173      2.00000
     10      -0.7859      2.00000
     11      -0.6133      2.00000
     12      -0.5192      2.00000
     13      -0.4596      2.00000
     14      -0.2502      2.00000
     15      -0.1742      2.00000
     16       3.3920      2.06981
     17       3.4069      2.06454
     18       3.5047      1.84306
     19       7.9482     -0.00000
     20       8.0358     -0.00000
     21       8.0573     -0.00000
     22       9.5458      0.00000

 k-point    58 :      -0.2000   -0.4000    0.4000
  band No.  band energies     occupation 
      1     -29.0338      2.00000
      2     -29.0218      2.00000
      3     -28.9678      2.00000
      4     -16.6485      2.00000
      5     -16.6218      2.00000
      6     -16.5336      2.00000
      7     -12.8751      2.00000
      8     -12.4364      2.00000
      9     -12.3888      2.00000
     10      -0.8467      2.00000
     11      -0.6475      2.00000
     12      -0.2801      2.00000
     13       0.0438      2.00000
     14       0.1743      2.00000
     15       1.0438      2.00000
     16       2.6803      2.00000
     17       2.7028      2.00000
     18       3.4427      2.02742
     19       7.5701     -0.00000
     20       7.6555     -0.00000
     21       7.9102     -0.00000
     22       9.7019      0.00000

 k-point    59 :       0.0000   -0.2000    0.4000
  band No.  band energies     occupation 
      1     -29.0361      2.00000
      2     -28.9806      2.00000
      3     -28.9431      2.00000
      4     -16.7144      2.00000
      5     -16.5638      2.00000
      6     -16.5010      2.00000
      7     -13.1803      2.00000
      8     -12.6746      2.00000
      9     -12.4599      2.00000
     10      -0.6448      2.00000
     11      -0.1263      2.00000
     12       0.5993      2.00000
     13       0.7369      2.00000
     14       1.1786      2.00000
     15       1.6107      2.00000
     16       2.2218      2.00000
     17       2.5563      2.00000
     18       2.7441      2.00000
     19       6.5508     -0.00000
     20       7.4724     -0.00000
     21       7.5364     -0.00000
     22       8.8299     -0.00000

 k-point    60 :       0.2000   -0.2000    0.4000
  band No.  band energies     occupation 
      1     -29.0351      2.00000
      2     -28.9798      2.00000
      3     -28.9694      2.00000
      4     -16.6865      2.00000
      5     -16.5616      2.00000
      6     -16.5413      2.00000
      7     -13.0195      2.00000
      8     -12.6312      2.00000
      9     -12.4408      2.00000
     10      -0.6425      2.00000
     11      -0.2007      2.00000
     12       0.1254      2.00000
     13       0.3485      2.00000
     14       0.7070      2.00000
     15       1.4321      2.00000
     16       2.5443      2.00000
     17       2.6572      2.00000
     18       2.8753      2.00000
     19       6.8611     -0.00000
     20       7.5511     -0.00000
     21       7.5780     -0.00000
     22       9.7359      0.00000

 k-point    61 :       0.4000   -0.2000    0.4000
  band No.  band energies     occupation 
      1     -29.0335      2.00000
      2     -29.0122      2.00000
      3     -28.9776      2.00000
      4     -16.6470      2.00000
      5     -16.6225      2.00000
      6     -16.5350      2.00000
      7     -12.8905      2.00000
      8     -12.4316      2.00000
      9     -12.3802      2.00000
     10      -0.8024      2.00000
     11      -0.6186      2.00000
     12      -0.3708      2.00000
     13       0.0326      2.00000
     14       0.2056      2.00000
     15       1.0567      2.00000
     16       2.6920      2.00000
     17       2.7072      2.00000
     18       3.4426      2.02757
     19       7.5448     -0.00000
     20       7.6648     -0.00000
     21       7.9050     -0.00000
     22       9.6897      0.00000

 k-point    62 :      -0.4000   -0.2000    0.4000
  band No.  band energies     occupation 
      1     -29.0336      2.00000
      2     -29.0122      2.00000
      3     -28.9776      2.00000
      4     -16.6459      2.00000
      5     -16.6239      2.00000
      6     -16.5348      2.00000
      7     -12.8900      2.00000
      8     -12.4312      2.00000
      9     -12.3808      2.00000
     10      -0.8280      2.00000
     11      -0.6400      2.00000
     12      -0.3042      2.00000
     13       0.0471      2.00000
     14       0.1915      2.00000
     15       1.0397      2.00000
     16       2.6820      2.00000
     17       2.7057      2.00000
     18       3.4418      2.02875
     19       7.5657     -0.00000
     20       7.6476     -0.00000
     21       7.9091     -0.00000
     22       9.7060      0.00000

 k-point    63 :      -0.2000   -0.2000    0.4000
  band No.  band energies     occupation 
      1     -29.0352      2.00000
      2     -28.9795      2.00000
      3     -28.9696      2.00000
      4     -16.6864      2.00000
      5     -16.5631      2.00000
      6     -16.5402      2.00000
      7     -13.0177      2.00000
      8     -12.6333      2.00000
      9     -12.4398      2.00000
     10      -0.6628      2.00000
     11      -0.1917      2.00000
     12       0.0962      2.00000
     13       0.3992      2.00000
     14       0.7575      2.00000
     15       1.3904      2.00000
     16       2.5474      2.00000
     17       2.6103      2.00000
     18       2.8758      2.00000
     19       6.9047     -0.00000
     20       7.5138     -0.00000
     21       7.5994     -0.00000
     22       9.7378      0.00000


--------------------------------------------------------------------------------------------------------


 soft charge-density along one line, spin component           1
         0         1         2         3         4         5         6         7         8         9
 total charge-density along one line
 
 pseudopotential strength for first ion, spin component:           1
-30.163  -0.005  -0.002   7.057   0.003   0.001   0.001   0.002
 -0.005 -30.160  -0.003   0.003   7.056   0.002  -0.000   0.002
 -0.002  -0.003 -30.165   0.001   0.002   7.059   0.002  -0.000
  7.057   0.003   0.001   3.778  -0.001  -0.000   0.001   0.003
  0.003   7.056   0.002  -0.001   3.779  -0.001   0.000   0.002
  0.001   0.002   7.059  -0.000  -0.001   3.777   0.002   0.000
  0.001  -0.000   0.002   0.001   0.000   0.002  -3.626  -0.002
  0.002   0.002  -0.000   0.003   0.002   0.000  -0.002  -3.623
  0.006  -0.015   0.003  -0.003   0.009  -0.002   0.001  -0.001
 -0.000   0.001   0.002   0.000   0.001   0.003  -0.003  -0.001
  0.009  -0.000  -0.005  -0.006   0.000   0.003  -0.000   0.002
  0.001  -0.000   0.002   0.001   0.000   0.002  -3.799  -0.002
  0.002   0.002  -0.000   0.003   0.002   0.000  -0.002  -3.795
  0.007  -0.018   0.004  -0.004   0.011  -0.002   0.001  -0.001
 -0.000   0.001   0.002   0.000   0.001   0.003  -0.003  -0.001
  0.011  -0.000  -0.006  -0.007   0.000   0.004  -0.000   0.002
  0.004   0.005   0.002  -0.001  -0.002  -0.001   0.001   0.001
  0.012   0.016   0.007  -0.004  -0.005  -0.002   0.001   0.003
 total augmentation occupancy for first ion, spin component:           1
  1.976  -0.000  -0.000  -0.064  -0.000  -0.000  -0.003  -0.008  -0.028   0.000  -0.047   0.003   0.007   0.024  -0.000   0.041
 -0.000   1.976  -0.000  -0.000  -0.064  -0.000   0.000  -0.006   0.073  -0.003   0.000  -0.000   0.006  -0.063   0.003  -0.000
 -0.000  -0.000   1.976  -0.000  -0.000  -0.065  -0.005   0.000  -0.016  -0.008   0.028   0.005  -0.000   0.014   0.007  -0.024
 -0.064  -0.000  -0.000   0.340  -0.005  -0.002  -0.031  -0.067  -0.200   0.002  -0.343   0.022   0.047   0.140  -0.002   0.239
 -0.000  -0.064  -0.000  -0.005   0.345  -0.003   0.002  -0.054   0.523  -0.033   0.001  -0.002   0.038  -0.365   0.023  -0.001
 -0.000  -0.000  -0.065  -0.002  -0.003   0.336  -0.050   0.002  -0.118  -0.065   0.203   0.035  -0.002   0.082   0.045  -0.142
 -0.003   0.000  -0.005  -0.031   0.002  -0.050   3.847  -0.005   0.123  -0.011   0.001  -2.408   0.003  -0.089   0.006  -0.001
 -0.008  -0.006   0.000  -0.067  -0.054   0.002  -0.005   4.046  -0.139  -0.003   0.234   0.003  -2.535   0.100   0.001  -0.169
 -0.028   0.073  -0.016  -0.200   0.523  -0.118   0.123  -0.139  14.051  -0.084   0.118  -0.089   0.101  -9.791   0.061  -0.087
  0.000  -0.003  -0.008   0.002  -0.033  -0.065  -0.011  -0.003  -0.084   3.950  -0.138   0.006   0.001   0.061  -2.473   0.100
 -0.047   0.000   0.028  -0.343   0.001   0.203   0.001   0.234   0.118  -0.138  13.610  -0.001  -0.169  -0.087   0.100  -9.465
  0.003  -0.000   0.005   0.022  -0.002   0.035  -2.408   0.003  -0.089   0.006  -0.001   1.514  -0.001   0.065  -0.002   0.001
  0.007   0.006  -0.000   0.047   0.038  -0.002   0.003  -2.535   0.101   0.001  -0.169  -0.001   1.597  -0.073  -0.000   0.124
  0.024  -0.063   0.014   0.140  -0.365   0.082  -0.089   0.100  -9.791   0.061  -0.087   0.065  -0.073   6.894  -0.045   0.065
 -0.000   0.003   0.007  -0.002   0.023   0.045   0.006   0.001   0.061  -2.473   0.100  -0.002  -0.000  -0.045   1.556  -0.073
  0.041  -0.000  -0.024   0.239  -0.001  -0.142  -0.001  -0.169  -0.087   0.100  -9.465   0.001   0.124   0.065  -0.073   6.651
  0.005   0.006   0.003   0.072   0.094   0.043  -0.049  -0.108   0.089  -0.064  -0.048   0.034   0.074  -0.064   0.044   0.035
 -0.001  -0.001  -0.001  -0.001  -0.001  -0.001   0.002   0.004  -0.000   0.002   0.000  -0.001  -0.003   0.001  -0.002  -0.000


------------------------ aborting loop because EDIFF is reached ----------------------------------------


    CHARGE:  cpu time    0.01: real time    0.01
    FORLOC:  cpu time    0.00: real time    0.00
    FORNL :  cpu time    0.05: real time    0.05
    STRESS:  cpu time    0.63: real time    0.63
    FORCOR:  cpu time    0.00: real time    0.00
    FORHAR:  cpu time    0.00: real time    0.00
    MIXING:  cpu time    0.00: real time    0.00
    OFIELD:  cpu time    0.00: real time    0.00

  FORCE on cell =-STRESS in cart. coord.  units (eV):
  Direction    XX          YY          ZZ          XY          YZ          ZX
  --------------------------------------------------------------------------------------
  Alpha Z   166.69950   166.69950   166.69950
  Ewald    -756.59768  -756.53263  -758.19293    -2.01259    -3.68971    -2.43702
  Hartree   231.31000   230.36553   228.21261    -0.95587    -1.78539    -1.16571
  E(xc)    -170.31751  -170.31700  -170.31816    -0.00359    -0.00725    -0.00451
  Local     -38.31511   -37.44057   -33.58900     2.96854     5.45000     3.59520
  n-local   -88.11674   -88.12229   -88.14279    -0.02706    -0.02873    -0.02608
  augment   132.86619   132.89073   132.90424    -0.01184    -0.02167    -0.01435
  Kinetic   521.27881   521.58176   521.89874     0.11422     0.30259     0.16349
  Fock        0.00000     0.00000     0.00000     0.00000     0.00000     0.00000
  -------------------------------------------------------------------------------------
  Total      -1.19254    -0.87498    -0.52779     0.07180     0.21984     0.11103
  in kB     -32.65508   -23.95929   -14.45234     1.96621     6.01983     3.04037
  external pressure =      -23.69 kB  Pullay stress =        0.00 kB


 VOLUME and BASIS-vectors are now :
 -----------------------------------------------------------------------------
  energy-cutoff  :      400.00
  volume of cell :       58.51
      direct lattice vectors                 reciprocal lattice vectors
     3.882200000  0.000000000  0.000000000     0.257585905  0.000000000  0.000000000
     0.000000000  3.882200000  0.000000000     0.000000000  0.257585905  0.000000000
     0.000000000  0.000000000  3.882200000     0.000000000  0.000000000  0.257585905

  length of vectors
     3.882200000  3.882200000  3.882200000     0.257585905  0.257585905  0.257585905


 FORCES acting on ions
    electron-ion (+dipol)            ewald-force                    non-local-force                 convergence-correction
 -----------------------------------------------------------------------------------------------
   0.554E+01 0.842E+01 0.100E+02   -.554E+01 -.843E+01 -.101E+02   0.126E-01 0.237E-01 0.517E-01   -.107E-01 -.221E-01 -.128E-01
   0.134E+02 0.253E+02 0.365E+02   -.131E+02 -.249E+02 -.359E+02   -.227E+00 -.416E+00 -.586E+00   -.422E-03 -.293E-02 -.757E-03
   -.162E+02 -.189E+01 -.352E+01   0.182E+02 0.212E+01 0.392E+01   -.190E+01 -.401E+00 -.649E+00   0.185E-02 -.361E-03 -.909E-03
   -.294E+00 -.265E+02 -.302E+01   0.351E+00 0.300E+02 0.338E+01   -.155E+00 -.315E+01 -.615E+00   -.464E-03 0.328E-02 -.841E-03
   -.277E-01 -.105E+01 -.341E+02   0.583E-01 0.120E+01 0.386E+02   -.137E+00 -.343E+00 -.409E+01   -.602E-03 -.631E-03 0.365E-02
 -----------------------------------------------------------------------------------------------
   0.242E+01 0.431E+01 0.590E+01   -.406E-14 0.000E+00 0.711E-14   -.241E+01 -.429E+01 -.589E+01   -.104E-01 -.228E-01 -.117E-01
 
 
 POSITION                                       TOTAL-FORCE (eV/Angst)
 -----------------------------------------------------------------------------------
      0.04428      0.07388      0.09628         0.006784      0.000234     -0.009800
      2.01291      2.07428      2.13085         0.012286      0.012387      0.014460
      1.94110      0.00000      0.00000         0.187385     -0.170462     -0.248297
      0.00000      1.94110      0.00000        -0.099360      0.352321     -0.262157
      0.00000      0.00000      1.94110        -0.107096     -0.194480      0.505794
 -----------------------------------------------------------------------------------
    total drift:                                0.001225     -0.004201     -0.001032


--------------------------------------------------------------------------------------------------------



  FREE ENERGIE OF THE ION-ELECTRON SYSTEM (eV)
  ---------------------------------------------------
  free  energy   TOTEN  =       -40.08396739 eV

  energy  without entropy=      -40.09068435  energy(sigma->0) =      -40.08620638
 
 d Force = 0.3870587E-05[ 0.459E-05, 0.315E-05]  d Energy =-0.2615067E-05 0.649E-05
 d Force = 0.1022814E-02[ 0.961E-03, 0.108E-02]  d Ewald  = 0.1022817E-02-0.343E-08


--------------------------------------------------------------------------------------------------------


    POTLOK:  cpu time    0.01: real time    0.01


--------------------------------------------------------------------------------------------------------


 stress matrix after NEB project (eV)
     -1.19254      0.07180      0.11103
      0.07180     -0.87498      0.21984
      0.11103      0.21984     -0.52779
  FORCES: max atom, RMS     0.022660    0.011451
  FORCE total and by dimension    0.025605    0.014460
  Stress total and by dimension    1.611811    1.192543


--------------------------------------------------------------------------------------------------------


  
 reached required accuracy - stopping structural energy minimisation
 writing wavefunctions
     LOOP+:  cpu time    1.75: real time    1.81
    4ORBIT:  cpu time    0.00: real time    0.00

 total amount of memory used by VASP on root node    61338. kBytes
========================================================================

   base      :      30000. kBytes
   nonl-proj :      29425. kBytes
   fftplans  :        145. kBytes
   grid      :        538. kBytes
   one-center:         77. kBytes
   wavefun   :       1153. kBytes
 
  
  
 General timing and accounting informations for this job:
 ========================================================
  
                  Total CPU time used (sec):       37.188
                            User time (sec):       36.921
                          System time (sec):        0.267
                         Elapsed time (sec):       37.394
  
                   Maximum memory used (kb):       89424.
                   Average memory used (kb):           0.
  
                          Minor page faults:        24526
                          Major page faults:            0
                 Voluntary context switches:         1278
