 vasp.5.3.5 31Mar14 (build Dec 17 2015 22:09:37) complex                        
  
 executed on             LinuxIFC date 2017.03.19  05:22:05
 running on   22 total cores
 distrk:  each k-point on   22 cores,    1 groups
 distr:  one band on NCORES_PER_BAND=   1 cores,   22 groups


--------------------------------------------------------------------------------------------------------


 INCAR:
 POTCAR:    PAW_PBE Ti_pv 07Sep2000               
 POTCAR:    PAW_PBE Ca_pv 06Sep2000               
 POTCAR:    PAW_PBE O 08Apr2002                   

 ----------------------------------------------------------------------------- 
|                                                                             |
|           W    W    AA    RRRRR   N    N  II  N    N   GGGG   !!!           |
|           W    W   A  A   R    R  NN   N  II  NN   N  G    G  !!!           |
|           W    W  A    A  R    R  N N  N  II  N N  N  G       !!!           |
|           W WW W  AAAAAA  RRRRR   N  N N  II  N  N N  G  GGG   !            |
|           WW  WW  A    A  R   R   N   NN  II  N   NN  G    G                |
|           W    W  A    A  R    R  N    N  II  N    N   GGGG   !!!           |
|                                                                             |
|      For optimal performance we recommend to set                            |
|        NCORE= 4 - approx SQRT( number of cores)                             |
|      NCORE specifies how many cores store one orbital (NPAR=cpu/NCORE).     |
|      This setting can  greatly improve the performance of VASP for DFT.     |
|      The default, NPAR=number of cores might be grossly inefficient         |
|      on modern multi-core architectures or massively parallel machines.     |
|      Do your own testing !!!!                                               |
|      Unfortunately you need to use the default for GW and RPA calculations. |
|      (for HF NCORE is supported but not extensively tested yet)             |
|                                                                             |
 ----------------------------------------------------------------------------- 

 POTCAR:    PAW_PBE Ti_pv 07Sep2000               
   VRHFIN =Ti: d3 s1                                                            
   LEXCH  = PE                                                                  
   EATOM  =  1042.5995 eV,   76.6289 Ry                                         
                                                                                
   TITEL  = PAW_PBE Ti_pv 07Sep2000                                             
   LULTRA =        F    use ultrasoft PP ?                                      
   IUNSCR =        1    unscreen: 0-lin 1-nonlin 2-no                           
   RPACOR =    2.200    partial core radius                                     
   POMASS =   47.880; ZVAL   =   10.000    mass and valenz                      
   RCORE  =    2.500    outmost cutoff radius                                   
   RWIGS  =    2.500; RWIGS  =    1.323    wigner-seitz radius (au A)           
   ENMAX  =  222.335; ENMIN  =  166.751 eV                                      
   RCLOC  =    1.701    cutoff for local pot                                    
   LCOR   =        T    correct aug charges                                     
   LPAW   =        T    paw PP                                                  
   EAUG   =  482.848                                                            
   DEXC   =    0.000                                                            
   RMAX   =    2.564    core radius for proj-oper                               
   RAUG   =    1.300    factor for augmentation sphere                          
   RDEP   =    2.538    radius for radial grids                                 
   RDEPT  =    1.952    core radius for aug-charge                              
                                                                                
   Atomic configuration                                                         
    8 entries                                                                   
     n  l   j            E        occ.                                          
     1  0  0.50     -4865.3608   2.0000                                         
     2  0  0.50      -533.1368   2.0000                                         
     2  1  1.50      -440.5031   6.0000                                         
     3  0  0.50       -59.3186   2.0000                                         
     3  1  1.50       -35.7012   6.0000                                         
     3  2  2.50        -1.9157   3.0000                                         
     4  0  0.50        -3.7291   1.0000                                         
     4  3  2.50        -1.3606   0.0000                                         
   Description                                                                  
     l       E           TYP  RCUT    TYP  RCUT                                 
     1    -35.7012140     23  2.300                                             
     1     -1.3605826     23  2.300                                             
     2     -1.9156996     23  2.500                                             
     2     -0.4063033     23  2.500                                             
     0     -3.7290856     23  2.500                                             
     0     20.4087390     23  2.500                                             
  local pseudopotential read in
  partial core-charges read in
  partial kinetic energy density read in
  atomic valenz-charges read in
  non local Contribution for L=           1  read in
    real space projection operators read in
  non local Contribution for L=           1  read in
    real space projection operators read in
  non local Contribution for L=           2  read in
    real space projection operators read in
  non local Contribution for L=           2  read in
    real space projection operators read in
  non local Contribution for L=           0  read in
    real space projection operators read in
  non local Contribution for L=           0  read in
    real space projection operators read in
    PAW grid and wavefunctions read in
 
   number of l-projection  operators is LMAX  =           6
   number of lm-projection operators is LMMAX =          18
 
 POTCAR:    PAW_PBE Ca_pv 06Sep2000               
   VRHFIN =Ca: p6s2d0.01                                                        
   LEXCH  = PE                                                                  
   EATOM  =   612.6676 eV,   45.0298 Ry                                         
                                                                                
   TITEL  = PAW_PBE Ca_pv 06Sep2000                                             
   LULTRA =        F    use ultrasoft PP ?                                      
   IUNSCR =        1    unscreen: 0-lin 1-nonlin 2-no                           
   RPACOR =    2.300    partial core radius                                     
   POMASS =   40.078; ZVAL   =    8.000    mass and valenz                      
   RCORE  =    3.000    outmost cutoff radius                                   
   RWIGS  =    3.300; RWIGS  =    1.746    wigner-seitz radius (au A)           
   ENMAX  =  119.559; ENMIN  =   89.670 eV                                      
   RCLOC  =    1.709    cutoff for local pot                                    
   LCOR   =        T    correct aug charges                                     
   LPAW   =        T    paw PP                                                  
   EAUG   =  325.799                                                            
   DEXC   =    0.000                                                            
   RMAX   =    3.072    core radius for proj-oper                               
   RAUG   =    1.300    factor for augmentation sphere                          
   RDEP   =    3.090    radius for radial grids                                 
   RDEPT  =    2.377    core radius for aug-charge                              
                                                                                
   Atomic configuration                                                         
    7 entries                                                                   
     n  l   j            E        occ.                                          
     1  0  0.50     -3949.1705   2.0000                                         
     2  0  0.50      -414.3434   2.0000                                         
     2  1  1.50      -334.7047   6.0000                                         
     3  0  0.50       -47.0896   2.0000                                         
     3  1  1.50       -28.0061   6.0000                                         
     4  0  0.50        -3.7663   2.0000                                         
     3  2  1.50        -4.0817   0.0000                                         
   Description                                                                  
     l       E           TYP  RCUT    TYP  RCUT                                 
     1    -28.0060855     23  3.000                                             
     1      1.3605826     23  3.000                                             
     0     -3.7663320     23  3.000                                             
     0      4.1207953     23  3.000                                             
     2     -4.0817478     23  3.000                                             
     2     -0.8716232     23  3.000                                             
  local pseudopotential read in
  partial core-charges read in
  partial kinetic energy density read in
  atomic valenz-charges read in
  non local Contribution for L=           1  read in
    real space projection operators read in
  non local Contribution for L=           1  read in
    real space projection operators read in
  non local Contribution for L=           0  read in
    real space projection operators read in
  non local Contribution for L=           0  read in
    real space projection operators read in
  non local Contribution for L=           2  read in
    real space projection operators read in
  non local Contribution for L=           2  read in
    real space projection operators read in
    PAW grid and wavefunctions read in
 
   number of l-projection  operators is LMAX  =           6
   number of lm-projection operators is LMMAX =          18
 
 POTCAR:    PAW_PBE O 08Apr2002                   
   VRHFIN =O: s2p4                                                              
   LEXCH  = PE                                                                  
   EATOM  =   432.3788 eV,   31.7789 Ry                                         
                                                                                
   TITEL  = PAW_PBE O 08Apr2002                                                 
   LULTRA =        F    use ultrasoft PP ?                                      
   IUNSCR =        1    unscreen: 0-lin 1-nonlin 2-no                           
   RPACOR =    1.200    partial core radius                                     
   POMASS =   16.000; ZVAL   =    6.000    mass and valenz                      
   RCORE  =    1.520    outmost cutoff radius                                   
   RWIGS  =    1.550; RWIGS  =    0.820    wigner-seitz radius (au A)           
   ENMAX  =  400.000; ENMIN  =  300.000 eV                                      
   ICORE  =        2    local potential                                         
   LCOR   =        T    correct aug charges                                     
   LPAW   =        T    paw PP                                                  
   EAUG   =  605.392                                                            
   DEXC   =    0.000                                                            
   RMAX   =    1.553    core radius for proj-oper                               
   RAUG   =    1.300    factor for augmentation sphere                          
   RDEP   =    1.550    radius for radial grids                                 
   RDEPT  =    1.329    core radius for aug-charge                              
                                                                                
   Atomic configuration                                                         
    4 entries                                                                   
     n  l   j            E        occ.                                          
     1  0  0.50      -514.6923   2.0000                                         
     2  0  0.50       -23.9615   2.0000                                         
     2  1  0.50        -9.0305   4.0000                                         
     3  2  1.50        -9.5241   0.0000                                         
   Description                                                                  
     l       E           TYP  RCUT    TYP  RCUT                                 
     0    -23.9615318     23  1.200                                             
     0     -9.5240782     23  1.200                                             
     1     -9.0304911     23  1.520                                             
     1      8.1634956     23  1.520                                             
     2     -9.5240782      7  1.500                                             
  local pseudopotential read in
  partial core-charges read in
  partial kinetic energy density read in
  kinetic energy density of atom read in
  atomic valenz-charges read in
  non local Contribution for L=           0  read in
    real space projection operators read in
  non local Contribution for L=           0  read in
    real space projection operators read in
  non local Contribution for L=           1  read in
    real space projection operators read in
  non local Contribution for L=           1  read in
    real space projection operators read in
    PAW grid and wavefunctions read in
 
   number of l-projection  operators is LMAX  =           4
   number of lm-projection operators is LMMAX =           8
 
  PAW_PBE Ti_pv 07Sep2000               :
 energy of atom  1       EATOM=-1042.5995
 kinetic energy error for atom=    0.0037 (will be added to EATOM!!)
  PAW_PBE Ca_pv 06Sep2000               :
 energy of atom  2       EATOM= -612.6676
 kinetic energy error for atom=    0.0002 (will be added to EATOM!!)
  PAW_PBE O 08Apr2002                   :
 energy of atom  3       EATOM= -432.3788
 kinetic energy error for atom=    0.1156 (will be added to EATOM!!)
 
 
 POSCAR: CaTiO3                                  
  positions in direct lattice
  velocities in cartesian coordinates
  No initial velocities read in
 exchange correlation table for  LEXCH =        8
   RHO(1)=    0.500       N(1)  =     2000
   RHO(2)=  100.500       N(2)  =     4000

 VTST: version 3.1, (03/28/14)

 CHAIN: initializing optimizer
 
 OPT: Using VASP Conjugate-Gradient optimizer
 CHAIN: Read ICHAIN            0
 
 POSCAR: CaTiO3                                  
  positions in direct lattice
  velocities in cartesian coordinates
  No initial velocities read in
 


--------------------------------------------------------------------------------------------------------


 ion  position               nearest neighbor table
   1  0.000  0.000  0.000-   3 1.94   4 1.94   5 1.94   5 1.94   4 1.94   3 1.94   2 3.29   2 3.34
                             2 3.34   2 3.34   2 3.39   2 3.39   2 3.39   2 3.43
   2  0.510  0.510  0.510-   3 2.69   4 2.69   5 2.69   3 2.75   4 2.75   3 2.75   5 2.75   4 2.75
                             5 2.75   3 2.80   4 2.80   5 2.80   1 3.29   1 3.34   1 3.34   1 3.34
   3  0.500  0.000  0.000-   1 1.94   1 1.94   2 2.69   2 2.75   2 2.75   2 2.80
   4  0.000  0.500  0.000-   1 1.94   1 1.94   2 2.69   2 2.75   2 2.75   2 2.80
   5  0.000  0.000  0.500-   1 1.94   1 1.94   2 2.69   2 2.75   2 2.75   2 2.80
 
  LATTYP: Found a simple cubic cell.
 ALAT       =     3.8822000000
  
  Lattice vectors:
  
 A1 = (   3.8822000000,   0.0000000000,   0.0000000000)
 A2 = (   0.0000000000,   3.8822000000,   0.0000000000)
 A3 = (   0.0000000000,   0.0000000000,   3.8822000000)


Analysis of symmetry for initial positions (statically):
=====================================================================
 Subroutine PRICEL returns:
 Original cell was already a primitive cell.
 

 Routine SETGRP: Setting up the symmetry group for a 
 simple cubic supercell.


 Subroutine GETGRP returns: Found  6 space group operations
 (whereof  6 operations were pure point group operations)
 out of a pool of 48 trial point group operations.


The static configuration has the point symmetry C_3v.


Analysis of symmetry for dynamics (positions and initial velocities):
=====================================================================
 Subroutine PRICEL returns:
 Original cell was already a primitive cell.
 

 Routine SETGRP: Setting up the symmetry group for a 
 simple cubic supercell.


 Subroutine GETGRP returns: Found  6 space group operations
 (whereof  6 operations were pure point group operations)
 out of a pool of 48 trial point group operations.


The dynamic configuration has the point symmetry C_3v.


Analysis of constrained symmetry for selective dynamics:
=====================================================================
 Subroutine PRICEL returns:
 Original cell was already a primitive cell.
 

 Routine SETGRP: Setting up the symmetry group for a 
 simple cubic supercell.


 Subroutine GETGRP returns: Found  6 space group operations
 (whereof  6 operations were pure point group operations)
 out of a pool of 48 trial point group operations.


The constrained configuration has the point symmetry C_3v.
 
 
 KPOINTS: k-points                                

Automatic generation of k-mesh.
Space group operators:
 irot       det(A)        alpha          n_x          n_y          n_z        tau_x        tau_y        tau_z
    1     1.000000     0.000000     1.000000     0.000000     0.000000     0.000000     0.000000     0.000000
    2     1.000000   120.000000    -0.577350    -0.577350    -0.577350     0.000000     0.000000     0.000000
    3     1.000000   120.000000     0.577350     0.577350     0.577350     0.000000     0.000000     0.000000
    4    -1.000000   180.000000     0.000000    -0.707107     0.707107     0.000000     0.000000     0.000000
    5    -1.000000   180.000000     0.707107    -0.707107     0.000000     0.000000     0.000000     0.000000
    6    -1.000000   180.000000     0.707107     0.000000    -0.707107     0.000000     0.000000     0.000000
 
 Subroutine IBZKPT returns following result:
 ===========================================
 
 Found     19 irreducible k-points:
 
 Following reciprocal coordinates:
            Coordinates               Weight
  0.000000  0.000000  0.000000      1.000000
  0.200000  0.000000  0.000000      6.000000
  0.400000  0.000000  0.000000      6.000000
  0.200000  0.200000  0.000000      6.000000
  0.400000  0.200000  0.000000     12.000000
 -0.400000  0.200000  0.000000     12.000000
 -0.200000  0.200000  0.000000      6.000000
  0.400000  0.400000  0.000000      6.000000
 -0.400000  0.400000  0.000000      6.000000
  0.200000  0.200000  0.200000      2.000000
  0.400000  0.200000  0.200000      6.000000
 -0.400000  0.200000  0.200000      6.000000
 -0.200000  0.200000  0.200000      6.000000
  0.400000  0.400000  0.200000      6.000000
 -0.400000  0.400000  0.200000     12.000000
 -0.200000  0.400000  0.200000     12.000000
 -0.400000 -0.400000  0.200000      6.000000
  0.400000  0.400000  0.400000      2.000000
 -0.400000  0.400000  0.400000      6.000000
 
 Following cartesian coordinates:
            Coordinates               Weight
  0.000000  0.000000  0.000000      1.000000
  0.200000  0.000000  0.000000      6.000000
  0.400000  0.000000  0.000000      6.000000
  0.200000  0.200000  0.000000      6.000000
  0.400000  0.200000  0.000000     12.000000
 -0.400000  0.200000  0.000000     12.000000
 -0.200000  0.200000  0.000000      6.000000
  0.400000  0.400000  0.000000      6.000000
 -0.400000  0.400000  0.000000      6.000000
  0.200000  0.200000  0.200000      2.000000
  0.400000  0.200000  0.200000      6.000000
 -0.400000  0.200000  0.200000      6.000000
 -0.200000  0.200000  0.200000      6.000000
  0.400000  0.400000  0.200000      6.000000
 -0.400000  0.400000  0.200000     12.000000
 -0.200000  0.400000  0.200000     12.000000
 -0.400000 -0.400000  0.200000      6.000000
  0.400000  0.400000  0.400000      2.000000
 -0.400000  0.400000  0.400000      6.000000
 


--------------------------------------------------------------------------------------------------------




 Dimension of arrays:
   k-points           NKPTS =     19   k-points in BZ     NKDIM =     19   number of bands    NBANDS=     22
   number of dos      NEDOS =    301   number of ions     NIONS =      5
   non local maximal  LDIM  =      6   non local SUM 2l+1 LMDIM =     18
   total plane-waves  NPLWV =   8000
   max r-space proj   IRMAX =      1   max aug-charges    IRDMAX=   9776
   dimension x,y,z NGX =    20 NGY =   20 NGZ =   20
   dimension x,y,z NGXF=    40 NGYF=   40 NGZF=   40
   support grid    NGXF=    40 NGYF=   40 NGZF=   40
   ions per type =               1   1   3
 NGX,Y,Z   is equivalent  to a cutoff of   8.56,  8.56,  8.56 a.u.
 NGXF,Y,Z  is equivalent  to a cutoff of  17.13, 17.13, 17.13 a.u.


 I would recommend the setting:
   dimension x,y,z NGX =    19 NGY =   19 NGZ =   19
 SYSTEM =  unknown system                          
 POSCAR =  CaTiO3                                  

 Startparameter for this run:
   NWRITE =      2    write-flag & timer
   PREC   = normal    normal or accurate (medium, high low for compatibility)
   ISTART =      0    job   : 0-new  1-cont  2-samecut
   ICHARG =      2    charge: 1-file 2-atom 10-const
   ISPIN  =      1    spin polarized calculation?
   LNONCOLLINEAR =      F non collinear calculations
   LSORBIT =      F    spin-orbit coupling
   INIWAV =      1    electr: 0-lowe 1-rand  2-diag
   LASPH  =      F    aspherical Exc in radial PAW
   METAGGA=      F    non-selfconsistent MetaGGA calc.

 Electronic Relaxation 1
   ENCUT  =  400.0 eV  29.40 Ry    5.42 a.u.   6.33  6.33  6.33*2*pi/ulx,y,z
   ENINI  =  400.0     initial cutoff
   ENAUG  =  605.4 eV  augmentation charge cutoff
   NELM   =     60;   NELMIN=  2; NELMDL=  0     # of ELM steps 
   EDIFF  = 0.1E-03   stopping-criterion for ELM
   LREAL  =      F    real-space projection
   NLSPLINE    = F    spline interpolate recip. space projectors
   LCOMPAT=      F    compatible to vasp.4.4
   GGA_COMPAT  = T    GGA compatible to vasp.4.4-vasp.4.6
   LMAXPAW     = -100 max onsite density
   LMAXMIX     =    2 max onsite mixed and CHGCAR
   VOSKOWN=      0    Vosko Wilk Nusair interpolation
   ROPT   =    0.00000   0.00000   0.00000
 Ionic relaxation
   EDIFFG = 0.1E-02   stopping-criterion for IOM
   NSW    =   1024    number of steps for IOM
   NBLOCK =      1;   KBLOCK =   1024    inner block; outer block 
   IBRION =      2    ionic relax: 0-MD 1-quasi-New 2-CG
   NFREE  =      1    steps in history (QN), initial steepest desc. (CG)
   ISIF   =      2    stress and relaxation
   IWAVPR =     11    prediction:  0-non 1-charg 2-wave 3-comb
   ISYM   =      2    0-nonsym 1-usesym 2-fastsym
   LCORR  =      T    Harris-Foulkes like correction to forces

   POTIM  = 0.5000    time-step for ionic-motion
   TEIN   =    0.0    initial temperature
   TEBEG  =    0.0;   TEEND  =   0.0 temperature during run
   SMASS  =  -3.00    Nose mass-parameter (am)
   estimated Nose-frequenzy (Omega)   =  0.10E-29 period in steps =****** mass=  -0.344E-27a.u.
   SCALEE = 1.0000    scale energy and forces
   NPACO  =    256;   APACO  = 16.0  distance and # of slots for P.C.
   PSTRESS=    0.0 pullay stress

  Mass of Ions in am
   POMASS =  47.88 40.08 16.00
  Ionic Valenz
   ZVAL   =  10.00  8.00  6.00
  Atomic Wigner-Seitz radii
   RWIGS  =  -1.00 -1.00 -1.00
  virtual crystal weights 
   VCA    =   1.00  1.00  1.00
   NELECT =      36.0000    total number of electrons
   NUPDOWN=      -1.0000    fix difference up-down

 DOS related values:
   EMIN   =  10.00;   EMAX   =-10.00  energy-range for DOS
   EFERMI =   0.00
   ISMEAR =     1;   SIGMA  =   0.20  broadening in eV -4-tet -1-fermi 0-gaus

 Electronic relaxation 2 (details)
   IALGO  =     38    algorithm
   LDIAG  =      T    sub-space diagonalisation (order eigenvalues)
   LSUBROT=      F    optimize rotation matrix (better conditioning)
   TURBO    =      0    0=normal 1=particle mesh
   IRESTART =      0    0=no restart 2=restart with 2 vectors
   NREBOOT  =      0    no. of reboots
   NMIN     =      0    reboot dimension
   EREF     =   0.00    reference energy to select bands
   IMIX   =      4    mixing-type and parameters
     AMIX     =   0.40;   BMIX     =  1.00
     AMIX_MAG =   1.60;   BMIX_MAG =  1.00
     AMIN     =   0.10
     WC   =   100.;   INIMIX=   1;  MIXPRE=   1;  MAXMIX= -45

 Intra band minimization:
   WEIMIN = 0.0010     energy-eigenvalue tresh-hold
   EBREAK =  0.11E-05  absolut break condition
   DEPER  =   0.30     relativ break condition  

   TIME   =   0.40     timestep for ELM

  volume/ion in A,a.u.               =      11.70        78.97
  Fermi-wavevector in a.u.,A,eV,Ry     =   1.392401  2.631257 26.378723  1.938781
  Thomas-Fermi vector in A             =   2.516148
 
 Write flags
   LWAVE  =      T    write WAVECAR
   LCHARG =      T    write CHGCAR
   LVTOT  =      F    write LOCPOT, total local potential
   LVHAR  =      F    write LOCPOT, Hartree potential only
   LELF   =      F    write electronic localiz. function (ELF)
   LORBIT =      0    0 simple, 1 ext, 2 COOP (PROOUT)


 Dipole corrections
   LMONO  =      F    monopole corrections only (constant potential shift)
   LDIPOL =      F    correct potential (dipole corrections)
   IDIPOL =      0    1-x, 2-y, 3-z, 4-all directions 
   EPSILON=  1.0000000 bulk dielectric constant

 Exchange correlation treatment:
   GGA     =    --    GGA type
   LEXCH   =     8    internal setting for exchange type
   VOSKOWN=      0    Vosko Wilk Nusair interpolation
   LHFCALC =     F    Hartree Fock is set to
   LHFONE  =     F    Hartree Fock one center treatment
   AEXX    =    0.0000 exact exchange contribution

 Linear response parameters
   LEPSILON=     F    determine dielectric tensor
   LRPA    =     F    only Hartree local field effects (RPA)
   LNABLA  =     F    use nabla operator in PAW spheres
   LVEL    =     F    velocity operator in full k-point grid
   LINTERFAST=   F  fast interpolation
   KINTER  =     0    interpolate to denser k-point grid
   CSHIFT  =0.1000    complex shift for real part using Kramers Kronig
   OMEGAMAX=  -1.0    maximum frequency
   DEG_THRESHOLD= 0.2000000E-02 threshold for treating states as degnerate
   RTIME   =    0.100 relaxation time in fs

 Orbital magnetization related:
   ORBITALMAG=     F  switch on orbital magnetization
   LCHIMAG   =     F  perturbation theory with respect to B field
   DQ        =  0.001000  dq finite difference perturbation B field



--------------------------------------------------------------------------------------------------------


 conjugate gradient relaxation of ions
   using selective dynamics as specified on POSCAR
 charge density and potential will be updated during run
 non-spin polarized calculation
 Variant of blocked Davidson
 Davidson routine will perform the subspace rotation
 perform sub-space diagonalisation
    after iterative eigenvector-optimisation
 modified Broyden-mixing scheme, WC =      100.0
 initial mixing is a Kerker type mixing with AMIX =  0.4000 and BMIX =      1.0000
 Hartree-type preconditioning will be used
 using additional bands            4
 reciprocal scheme for non local part
 use partial core corrections
 calculate Harris-corrections to forces 
   (improved forces if not selfconsistent)
 use gradient corrections 
 use of overlap-Matrix (Vanderbilt PP)
 Methfessel and Paxton  Order N= 1 SIGMA  =   0.20


--------------------------------------------------------------------------------------------------------


  energy-cutoff  :      400.00
  volume of cell :       58.51
      direct lattice vectors                 reciprocal lattice vectors
     3.882200000  0.000000000  0.000000000     0.257585905  0.000000000  0.000000000
     0.000000000  3.882200000  0.000000000     0.000000000  0.257585905  0.000000000
     0.000000000  0.000000000  3.882200000     0.000000000  0.000000000  0.257585905

  length of vectors
     3.882200000  3.882200000  3.882200000     0.257585905  0.257585905  0.257585905


 
 k-points in units of 2pi/SCALE and weight: k-points                                
   0.00000000  0.00000000  0.00000000       0.008
   0.20000000  0.00000000  0.00000000       0.048
   0.40000000  0.00000000  0.00000000       0.048
   0.20000000  0.20000000  0.00000000       0.048
   0.40000000  0.20000000  0.00000000       0.096
  -0.40000000  0.20000000  0.00000000       0.096
  -0.20000000  0.20000000  0.00000000       0.048
   0.40000000  0.40000000  0.00000000       0.048
  -0.40000000  0.40000000  0.00000000       0.048
   0.20000000  0.20000000  0.20000000       0.016
   0.40000000  0.20000000  0.20000000       0.048
  -0.40000000  0.20000000  0.20000000       0.048
  -0.20000000  0.20000000  0.20000000       0.048
   0.40000000  0.40000000  0.20000000       0.048
  -0.40000000  0.40000000  0.20000000       0.096
  -0.20000000  0.40000000  0.20000000       0.096
  -0.40000000 -0.40000000  0.20000000       0.048
   0.40000000  0.40000000  0.40000000       0.016
  -0.40000000  0.40000000  0.40000000       0.048
 
 k-points in reciprocal lattice and weights: k-points                                
   0.00000000  0.00000000  0.00000000       0.008
   0.20000000  0.00000000  0.00000000       0.048
   0.40000000  0.00000000  0.00000000       0.048
   0.20000000  0.20000000  0.00000000       0.048
   0.40000000  0.20000000  0.00000000       0.096
  -0.40000000  0.20000000  0.00000000       0.096
  -0.20000000  0.20000000  0.00000000       0.048
   0.40000000  0.40000000  0.00000000       0.048
  -0.40000000  0.40000000  0.00000000       0.048
   0.20000000  0.20000000  0.20000000       0.016
   0.40000000  0.20000000  0.20000000       0.048
  -0.40000000  0.20000000  0.20000000       0.048
  -0.20000000  0.20000000  0.20000000       0.048
   0.40000000  0.40000000  0.20000000       0.048
  -0.40000000  0.40000000  0.20000000       0.096
  -0.20000000  0.40000000  0.20000000       0.096
  -0.40000000 -0.40000000  0.20000000       0.048
   0.40000000  0.40000000  0.40000000       0.016
  -0.40000000  0.40000000  0.40000000       0.048
 
 position of ions in fractional coordinates (direct lattice) 
   0.00000000  0.00000000  0.00000000
   0.51000000  0.51000000  0.51000000
   0.50000000  0.00000000  0.00000000
   0.00000000  0.50000000  0.00000000
   0.00000000  0.00000000  0.50000000
 
 position of ions in cartesian coordinates  (Angst):
   0.00000000  0.00000000  0.00000000
   1.97992200  1.97992200  1.97992200
   1.94110000  0.00000000  0.00000000
   0.00000000  1.94110000  0.00000000
   0.00000000  0.00000000  1.94110000
 


--------------------------------------------------------------------------------------------------------


 k-point  1 :   0.0000 0.0000 0.0000  plane waves:    1045
 k-point  2 :   0.2000 0.0000 0.0000  plane waves:    1069
 k-point  3 :   0.4000 0.0000 0.0000  plane waves:    1064
 k-point  4 :   0.2000 0.2000 0.0000  plane waves:    1073
 k-point  5 :   0.4000 0.2000 0.0000  plane waves:    1072
 k-point  6 :  -0.4000 0.2000 0.0000  plane waves:    1072
 k-point  7 :  -0.2000 0.2000 0.0000  plane waves:    1073
 k-point  8 :   0.4000 0.4000 0.0000  plane waves:    1063
 k-point  9 :  -0.4000 0.4000 0.0000  plane waves:    1063
 k-point 10 :   0.2000 0.2000 0.2000  plane waves:    1066
 k-point 11 :   0.4000 0.2000 0.2000  plane waves:    1068
 k-point 12 :  -0.4000 0.2000 0.2000  plane waves:    1068
 k-point 13 :  -0.2000 0.2000 0.2000  plane waves:    1066
 k-point 14 :   0.4000 0.4000 0.2000  plane waves:    1054
 k-point 15 :  -0.4000 0.4000 0.2000  plane waves:    1054
 k-point 16 :  -0.2000 0.4000 0.2000  plane waves:    1068
 k-point 17 :  -0.4000-0.4000 0.2000  plane waves:    1054
 k-point 18 :   0.4000 0.4000 0.4000  plane waves:    1058
 k-point 19 :  -0.4000 0.4000 0.4000  plane waves:    1058

 maximum and minimum number of plane-waves per node :      1073     1045

 maximum number of plane-waves:      1073
 maximum index in each direction: 
   IXMAX=    6   IYMAX=    6   IZMAX=    6
   IXMIN=   -6   IYMIN=   -6   IZMIN=   -6

 WARNING: aliasing errors must be expected set NGX to  26 to avoid them
 WARNING: aliasing errors must be expected set NGY to  26 to avoid them
 WARNING: aliasing errors must be expected set NGZ to  26 to avoid them
 aliasing errors are usually negligible using standard VASP settings
 and one can safely disregard these warnings

 serial   3D FFT for wavefunctions
 parallel 3D FFT for charge:
    minimum data exchange during FFTs selected (reduces bandwidth)


 total amount of memory used by VASP on root node    40041. kBytes
========================================================================

   base      :      30000. kBytes
   nonl-proj :       8934. kBytes
   fftplans  :        145. kBytes
   grid      :        538. kBytes
   one-center:         77. kBytes
   wavefun   :        347. kBytes
 
     INWAV:  cpu time    0.00: real time    0.00
 Broyden mixing: mesh for mixing (old mesh)
   NGX = 13   NGY = 13   NGZ = 13
  (NGX  = 40   NGY  = 40   NGZ  = 40)
  gives a total of   2197 points

 initial charge density was supplied:
 charge density of overlapping atoms calculated
 number of electron      36.0000000 magnetization 
 keeping initial charge density in first step


--------------------------------------------------------------------------------------------------------


 Maximum index for augmentation-charges          534 (set IRDMAX)


--------------------------------------------------------------------------------------------------------


 First call to EWALD:  gamma=   0.457
 Maximum number of real-space cells 3x 3x 3
 Maximum number of reciprocal cells 3x 3x 3

 FEWALD executed in parallel
    FEWALD:  cpu time    0.00: real time    0.00


----------------------------------------- Iteration    1(   1)  ---------------------------------------


    POTLOK:  cpu time    0.00: real time    0.00
    SETDIJ:  cpu time    0.00: real time    0.00
     EDDAV:  cpu time    0.14: real time    0.14
       DOS:  cpu time    0.00: real time    0.00
    --------------------------------------------
      LOOP:  cpu time    0.15: real time    0.15

 eigenvalue-minimisations  :   836
 total energy-change (2. order) : 0.2133599E+03  (-0.1661743E+04)
 number of electron      36.0000000 magnetization 
 augmentation part       36.0000000 magnetization 

 Free energy of the ion-electron system (eV)
  ---------------------------------------------------
  alpha Z        PSCENC =       166.69949767
  Ewald energy   TEWEN  =     -2277.25163274
  -Hartree energ DENC   =      -672.99795289
  -exchange      EXHF   =         0.00000000
  -V(xc)+E(xc)   XCENC  =       135.79300970
  PAW double counting   =      2297.08385515    -2300.16057493
  entropy T*S    EENTRO =         0.00257552
  eigenvalues    EBANDS =       -87.86162975
  atomic energy  EATOM  =      2952.05274943
  ---------------------------------------------------
  free energy    TOTEN  =       213.35989717 eV

  energy without entropy =      213.35732165  energy(sigma->0) =      213.35903866


--------------------------------------------------------------------------------------------------------




----------------------------------------- Iteration    1(   2)  ---------------------------------------


     EDDAV:  cpu time    0.28: real time    0.28
       DOS:  cpu time    0.00: real time    0.00
    --------------------------------------------
      LOOP:  cpu time    0.28: real time    0.28

 eigenvalue-minimisations  :  1496
 total energy-change (2. order) :-0.2528135E+03  (-0.2501836E+03)
 number of electron      36.0000000 magnetization 
 augmentation part       36.0000000 magnetization 

 Free energy of the ion-electron system (eV)
  ---------------------------------------------------
  alpha Z        PSCENC =       166.69949767
  Ewald energy   TEWEN  =     -2277.25163274
  -Hartree energ DENC   =      -672.99795289
  -exchange      EXHF   =         0.00000000
  -V(xc)+E(xc)   XCENC  =       135.79300970
  PAW double counting   =      2297.08385515    -2300.16057493
  entropy T*S    EENTRO =         0.00195224
  eigenvalues    EBANDS =      -340.67455489
  atomic energy  EATOM  =      2952.05274943
  ---------------------------------------------------
  free energy    TOTEN  =       -39.45365125 eV

  energy without entropy =      -39.45560349  energy(sigma->0) =      -39.45430200


--------------------------------------------------------------------------------------------------------




----------------------------------------- Iteration    1(   3)  ---------------------------------------


     EDDAV:  cpu time    0.14: real time    0.14
       DOS:  cpu time    0.00: real time    0.00
    --------------------------------------------
      LOOP:  cpu time    0.14: real time    0.14

 eigenvalue-minimisations  :   946
 total energy-change (2. order) :-0.1035007E+02  (-0.1036832E+02)
 number of electron      36.0000000 magnetization 
 augmentation part       36.0000000 magnetization 

 Free energy of the ion-electron system (eV)
  ---------------------------------------------------
  alpha Z        PSCENC =       166.69949767
  Ewald energy   TEWEN  =     -2277.25163274
  -Hartree energ DENC   =      -672.99795289
  -exchange      EXHF   =         0.00000000
  -V(xc)+E(xc)   XCENC  =       135.79300970
  PAW double counting   =      2297.08385515    -2300.16057493
  entropy T*S    EENTRO =         0.00907668
  eigenvalues    EBANDS =      -351.03174572
  atomic energy  EATOM  =      2952.05274943
  ---------------------------------------------------
  free energy    TOTEN  =       -49.80371765 eV

  energy without entropy =      -49.81279433  energy(sigma->0) =      -49.80674321


--------------------------------------------------------------------------------------------------------




----------------------------------------- Iteration    1(   4)  ---------------------------------------


     EDDAV:  cpu time    0.24: real time    0.24
       DOS:  cpu time    0.00: real time    0.00
    --------------------------------------------
      LOOP:  cpu time    0.24: real time    0.24

 eigenvalue-minimisations  :  1474
 total energy-change (2. order) :-0.1084922E+00  (-0.1075936E+00)
 number of electron      36.0000000 magnetization 
 augmentation part       36.0000000 magnetization 

 Free energy of the ion-electron system (eV)
  ---------------------------------------------------
  alpha Z        PSCENC =       166.69949767
  Ewald energy   TEWEN  =     -2277.25163274
  -Hartree energ DENC   =      -672.99795289
  -exchange      EXHF   =         0.00000000
  -V(xc)+E(xc)   XCENC  =       135.79300970
  PAW double counting   =      2297.08385515    -2300.16057493
  entropy T*S    EENTRO =         0.00784110
  eigenvalues    EBANDS =      -351.13900235
  atomic energy  EATOM  =      2952.05274943
  ---------------------------------------------------
  free energy    TOTEN  =       -49.91220985 eV

  energy without entropy =      -49.92005095  energy(sigma->0) =      -49.91482355


--------------------------------------------------------------------------------------------------------




----------------------------------------- Iteration    1(   5)  ---------------------------------------


     EDDAV:  cpu time    0.14: real time    0.14
       DOS:  cpu time    0.00: real time    0.00
    CHARGE:  cpu time    0.00: real time    0.00
    MIXING:  cpu time    0.00: real time    0.00
    --------------------------------------------
      LOOP:  cpu time    0.15: real time    0.15

 eigenvalue-minimisations  :  1012
 total energy-change (2. order) :-0.1164266E-02  (-0.1164079E-02)
 number of electron      36.0000015 magnetization 
 augmentation part       10.9354789 magnetization 

 Broyden mixing:
  rms(total) = 0.30922E+01    rms(broyden)= 0.30919E+01
  rms(prec ) = 0.53642E+01
  weight for this iteration     100.00

 Free energy of the ion-electron system (eV)
  ---------------------------------------------------
  alpha Z        PSCENC =       166.69949767
  Ewald energy   TEWEN  =     -2277.25163274
  -Hartree energ DENC   =      -672.99795289
  -exchange      EXHF   =         0.00000000
  -V(xc)+E(xc)   XCENC  =       135.79300970
  PAW double counting   =      2297.08385515    -2300.16057493
  entropy T*S    EENTRO =         0.00783576
  eigenvalues    EBANDS =      -351.14016128
  atomic energy  EATOM  =      2952.05274943
  ---------------------------------------------------
  free energy    TOTEN  =       -49.91337412 eV

  energy without entropy =      -49.92120988  energy(sigma->0) =      -49.91598604


--------------------------------------------------------------------------------------------------------




----------------------------------------- Iteration    1(   6)  ---------------------------------------


    POTLOK:  cpu time    0.00: real time    0.00
    SETDIJ:  cpu time    0.00: real time    0.00
     EDDAV:  cpu time    0.25: real time    0.25
       DOS:  cpu time    0.00: real time    0.00
    CHARGE:  cpu time    0.01: real time    0.01
    MIXING:  cpu time    0.00: real time    0.00
    --------------------------------------------
      LOOP:  cpu time    0.26: real time    0.26

 eigenvalue-minimisations  :  1584
 total energy-change (2. order) : 0.9303573E+01  (-0.8076727E+01)
 number of electron      35.9999976 magnetization 
 augmentation part       11.1256006 magnetization 

 Broyden mixing:
  rms(total) = 0.10163E+01    rms(broyden)= 0.10155E+01
  rms(prec ) = 0.15768E+01
  weight for this iteration     100.00

 eigenvalues of (default mixing * dielectric matrix)
  average eigenvalue GAMMA=   0.9858
  0.9858

 Free energy of the ion-electron system (eV)
  ---------------------------------------------------
  alpha Z        PSCENC =       166.69949767
  Ewald energy   TEWEN  =     -2277.25163274
  -Hartree energ DENC   =      -693.25366340
  -exchange      EXHF   =         0.00000000
  -V(xc)+E(xc)   XCENC  =       138.31063048
  PAW double counting   =      2775.95941479    -2781.77900955
  entropy T*S    EENTRO =         0.00714558
  eigenvalues    EBANDS =      -321.35493381
  atomic energy  EATOM  =      2952.05274943
  ---------------------------------------------------
  free energy    TOTEN  =       -40.60980155 eV

  energy without entropy =      -40.61694712  energy(sigma->0) =      -40.61218341


--------------------------------------------------------------------------------------------------------




----------------------------------------- Iteration    1(   7)  ---------------------------------------


    POTLOK:  cpu time    0.00: real time    0.00
    SETDIJ:  cpu time    0.00: real time    0.00
     EDDAV:  cpu time    0.16: real time    0.16
       DOS:  cpu time    0.00: real time    0.00
    CHARGE:  cpu time    0.00: real time    0.00
    MIXING:  cpu time    0.00: real time    0.00
    --------------------------------------------
      LOOP:  cpu time    0.17: real time    0.17

 eigenvalue-minimisations  :  1166
 total energy-change (2. order) : 0.4385638E+00  (-0.6757059E+00)
 number of electron      35.9999985 magnetization 
 augmentation part       11.0290588 magnetization 

 Broyden mixing:
  rms(total) = 0.79040E+00    rms(broyden)= 0.79038E+00
  rms(prec ) = 0.99763E+00
  weight for this iteration     100.00

 eigenvalues of (default mixing * dielectric matrix)
  average eigenvalue GAMMA=   1.7431
  0.7438  2.7425

 Free energy of the ion-electron system (eV)
  ---------------------------------------------------
  alpha Z        PSCENC =       166.69949767
  Ewald energy   TEWEN  =     -2277.25163274
  -Hartree energ DENC   =      -684.67618432
  -exchange      EXHF   =         0.00000000
  -V(xc)+E(xc)   XCENC  =       137.53867905
  PAW double counting   =      3003.15227133    -3008.89769392
  entropy T*S    EENTRO =         0.00687603
  eigenvalues    EBANDS =      -328.79580031
  atomic energy  EATOM  =      2952.05274943
  ---------------------------------------------------
  free energy    TOTEN  =       -40.17123778 eV

  energy without entropy =      -40.17811380  energy(sigma->0) =      -40.17352978


--------------------------------------------------------------------------------------------------------




----------------------------------------- Iteration    1(   8)  ---------------------------------------


    POTLOK:  cpu time    0.00: real time    0.00
    SETDIJ:  cpu time    0.00: real time    0.00
     EDDAV:  cpu time    0.20: real time    0.20
       DOS:  cpu time    0.00: real time    0.00
    CHARGE:  cpu time    0.00: real time    0.00
    MIXING:  cpu time    0.00: real time    0.00
    --------------------------------------------
      LOOP:  cpu time    0.21: real time    0.21

 eigenvalue-minimisations  :  1386
 total energy-change (2. order) :-0.1300539E+00  (-0.4602317E+00)
 number of electron      35.9999977 magnetization 
 augmentation part       11.2584473 magnetization 

 Broyden mixing:
  rms(total) = 0.57828E+00    rms(broyden)= 0.57823E+00
  rms(prec ) = 0.10571E+01
  weight for this iteration     100.00

 eigenvalues of (default mixing * dielectric matrix)
  average eigenvalue GAMMA=   1.1999
  2.3371  0.8120  0.4507

 Free energy of the ion-electron system (eV)
  ---------------------------------------------------
  alpha Z        PSCENC =       166.69949767
  Ewald energy   TEWEN  =     -2277.25163274
  -Hartree energ DENC   =      -678.26971199
  -exchange      EXHF   =         0.00000000
  -V(xc)+E(xc)   XCENC  =       137.45689695
  PAW double counting   =      3600.48505643    -3607.42698029
  entropy T*S    EENTRO =         0.00695063
  eigenvalues    EBANDS =      -334.05411781
  atomic energy  EATOM  =      2952.05274943
  ---------------------------------------------------
  free energy    TOTEN  =       -40.30129171 eV

  energy without entropy =      -40.30824234  energy(sigma->0) =      -40.30360859


--------------------------------------------------------------------------------------------------------




----------------------------------------- Iteration    1(   9)  ---------------------------------------


    POTLOK:  cpu time    0.00: real time    0.00
    SETDIJ:  cpu time    0.00: real time    0.00
     EDDAV:  cpu time    0.20: real time    0.20
       DOS:  cpu time    0.00: real time    0.00
    CHARGE:  cpu time    0.01: real time    0.01
    MIXING:  cpu time    0.00: real time    0.00
    --------------------------------------------
      LOOP:  cpu time    0.21: real time    0.21

 eigenvalue-minimisations  :  1232
 total energy-change (2. order) : 0.2146399E+00  (-0.9882772E-01)
 number of electron      35.9999981 magnetization 
 augmentation part       11.1571751 magnetization 

 Broyden mixing:
  rms(total) = 0.18042E+00    rms(broyden)= 0.18041E+00
  rms(prec ) = 0.31928E+00
  weight for this iteration     100.00

 eigenvalues of (default mixing * dielectric matrix)
  average eigenvalue GAMMA=   1.4353
  2.1772  2.1772  0.8438  0.5431

 Free energy of the ion-electron system (eV)
  ---------------------------------------------------
  alpha Z        PSCENC =       166.69949767
  Ewald energy   TEWEN  =     -2277.25163274
  -Hartree energ DENC   =      -680.87195839
  -exchange      EXHF   =         0.00000000
  -V(xc)+E(xc)   XCENC  =       137.50040074
  PAW double counting   =      3514.27022366    -3520.95821736
  entropy T*S    EENTRO =         0.00693911
  eigenvalues    EBANDS =      -331.53465389
  atomic energy  EATOM  =      2952.05274943
  ---------------------------------------------------
  free energy    TOTEN  =       -40.08665177 eV

  energy without entropy =      -40.09359088  energy(sigma->0) =      -40.08896480


--------------------------------------------------------------------------------------------------------




----------------------------------------- Iteration    1(  10)  ---------------------------------------


    POTLOK:  cpu time    0.00: real time    0.00
    SETDIJ:  cpu time    0.00: real time    0.00
     EDDAV:  cpu time    0.24: real time    0.24
       DOS:  cpu time    0.00: real time    0.00
    CHARGE:  cpu time    0.01: real time    0.01
    MIXING:  cpu time    0.00: real time    0.00
    --------------------------------------------
      LOOP:  cpu time    0.25: real time    0.25

 eigenvalue-minimisations  :  1518
 total energy-change (2. order) : 0.2157515E-01  (-0.2906584E-01)
 number of electron      35.9999982 magnetization 
 augmentation part       11.1038255 magnetization 

 Broyden mixing:
  rms(total) = 0.49871E-01    rms(broyden)= 0.49812E-01
  rms(prec ) = 0.79807E-01
  weight for this iteration     100.00

 eigenvalues of (default mixing * dielectric matrix)
  average eigenvalue GAMMA=   1.3574
  2.5765  1.6221  1.1657  0.8655  0.5572

 Free energy of the ion-electron system (eV)
  ---------------------------------------------------
  alpha Z        PSCENC =       166.69949767
  Ewald energy   TEWEN  =     -2277.25163274
  -Hartree energ DENC   =      -683.90424550
  -exchange      EXHF   =         0.00000000
  -V(xc)+E(xc)   XCENC  =       137.62225236
  PAW double counting   =      3483.11985618    -3489.68509831
  entropy T*S    EENTRO =         0.00698491
  eigenvalues    EBANDS =      -328.72544061
  atomic energy  EATOM  =      2952.05274943
  ---------------------------------------------------
  free energy    TOTEN  =       -40.06507662 eV

  energy without entropy =      -40.07206152  energy(sigma->0) =      -40.06740492


--------------------------------------------------------------------------------------------------------




----------------------------------------- Iteration    1(  11)  ---------------------------------------


    POTLOK:  cpu time    0.00: real time    0.00
    SETDIJ:  cpu time    0.00: real time    0.00
     EDDAV:  cpu time    0.17: real time    0.17
       DOS:  cpu time    0.00: real time    0.00
    CHARGE:  cpu time    0.01: real time    0.01
    MIXING:  cpu time    0.00: real time    0.00
    --------------------------------------------
      LOOP:  cpu time    0.18: real time    0.18

 eigenvalue-minimisations  :  1210
 total energy-change (2. order) : 0.8363618E-03  (-0.1144066E-02)
 number of electron      35.9999982 magnetization 
 augmentation part       11.1136101 magnetization 

 Broyden mixing:
  rms(total) = 0.66864E-02    rms(broyden)= 0.66837E-02
  rms(prec ) = 0.81818E-02
  weight for this iteration     100.00

 eigenvalues of (default mixing * dielectric matrix)
  average eigenvalue GAMMA=   1.5390
  2.6573  2.6573  1.5053  0.9940  0.8634  0.5570

 Free energy of the ion-electron system (eV)
  ---------------------------------------------------
  alpha Z        PSCENC =       166.69949767
  Ewald energy   TEWEN  =     -2277.25163274
  -Hartree energ DENC   =      -683.69463319
  -exchange      EXHF   =         0.00000000
  -V(xc)+E(xc)   XCENC  =       137.62432589
  PAW double counting   =      3504.76650524    -3511.36800889
  entropy T*S    EENTRO =         0.00698594
  eigenvalues    EBANDS =      -328.90002961
  atomic energy  EATOM  =      2952.05274943
  ---------------------------------------------------
  free energy    TOTEN  =       -40.06424025 eV

  energy without entropy =      -40.07122620  energy(sigma->0) =      -40.06656890


--------------------------------------------------------------------------------------------------------




----------------------------------------- Iteration    1(  12)  ---------------------------------------


    POTLOK:  cpu time    0.00: real time    0.00
    SETDIJ:  cpu time    0.00: real time    0.00
     EDDAV:  cpu time    0.17: real time    0.17
       DOS:  cpu time    0.00: real time    0.00
    --------------------------------------------
      LOOP:  cpu time    0.17: real time    0.17

 eigenvalue-minimisations  :  1166
 total energy-change (2. order) :-0.5407160E-04  (-0.3316195E-04)
 number of electron      35.9999982 magnetization 
 augmentation part       11.1136101 magnetization 

 Free energy of the ion-electron system (eV)
  ---------------------------------------------------
  alpha Z        PSCENC =       166.69949767
  Ewald energy   TEWEN  =     -2277.25163274
  -Hartree energ DENC   =      -683.82393990
  -exchange      EXHF   =         0.00000000
  -V(xc)+E(xc)   XCENC  =       137.63213699
  PAW double counting   =      3497.11930939    -3503.70300924
  entropy T*S    EENTRO =         0.00698671
  eigenvalues    EBANDS =      -328.79639265
  atomic energy  EATOM  =      2952.05274943
  ---------------------------------------------------
  free energy    TOTEN  =       -40.06429432 eV

  energy without entropy =      -40.07128104  energy(sigma->0) =      -40.06662323


--------------------------------------------------------------------------------------------------------




 average (electrostatic) potential at core
  the test charge radii are     1.0397  1.2658  0.7215
  (the norm of the test charge is              1.0000)
       1 -53.1402       2 -45.6169       3 -70.0814       4 -70.0814       5 -70.0814
 
 
 
 E-fermi :   3.6999     XC(G=0): -11.0113     alpha+bet :-13.2781


 k-point     1 :       0.0000    0.0000    0.0000
  band No.  band energies     occupation 
      1     -29.0301      2.00000
      2     -29.0297      2.00000
      3     -29.0297      2.00000
      4     -16.5873      2.00000
      5     -16.5859      2.00000
      6     -16.5859      2.00000
      7     -13.8672      2.00000
      8     -12.7701      2.00000
      9     -12.7701      2.00000
     10       0.6558      2.00000
     11       0.6558      2.00000
     12       0.6577      2.00000
     13       2.5769      2.00000
     14       2.5769      2.00000
     15       2.5838      2.00000
     16       3.2956      2.01491
     17       3.2956      2.01491
     18       3.2966      2.01515
     19       5.5761     -0.00000
     20       5.5803     -0.00000
     21       5.5803     -0.00000
     22       8.0559     -0.00000

 k-point     2 :       0.2000    0.0000    0.0000
  band No.  band energies     occupation 
      1     -29.0562      2.00000
      2     -29.0289      2.00000
      3     -29.0286      2.00000
      4     -16.6708      2.00000
      5     -16.5829      2.00000
      6     -16.5821      2.00000
      7     -13.6477      2.00000
      8     -12.7604      2.00000
      9     -12.6645      2.00000
     10       0.2310      2.00000
     11       0.6800      2.00000
     12       0.6816      2.00000
     13       2.0912      2.00000
     14       2.0934      2.00000
     15       2.2357      2.00000
     16       2.2762      2.00000
     17       3.1384      2.00053
     18       3.1391      2.00054
     19       5.6372     -0.00000
     20       6.3563     -0.00000
     21       6.3592     -0.00000
     22       8.0808     -0.00000

 k-point     3 :       0.4000    0.0000    0.0000
  band No.  band energies     occupation 
      1     -29.0983      2.00000
      2     -29.0271      2.00000
      3     -29.0268      2.00000
      4     -16.7958      2.00000
      5     -16.5770      2.00000
      6     -16.5760      2.00000
      7     -13.2937      2.00000
      8     -12.7388      2.00000
      9     -12.4769      2.00000
     10      -0.5455      2.00000
     11       0.8277      2.00000
     12       0.8288      2.00000
     13       1.1529      2.00000
     14       1.3491      2.00000
     15       1.3505      2.00000
     16       1.8738      2.00000
     17       3.0268      2.00002
     18       3.0287      2.00002
     19       5.7380     -0.00000
     20       7.3743     -0.00000
     21       7.3765     -0.00000
     22       8.0935     -0.00000

 k-point     4 :       0.2000    0.2000    0.0000
  band No.  band energies     occupation 
      1     -29.0553      2.00000
      2     -29.0551      2.00000
      3     -29.0277      2.00000
      4     -16.6761      2.00000
      5     -16.6318      2.00000
      6     -16.5784      2.00000
      7     -13.4616      2.00000
      8     -12.7030      2.00000
      9     -12.6067      2.00000
     10       0.0154      2.00000
     11       0.4252      2.00000
     12       0.6985      2.00000
     13       1.1529      2.00000
     14       1.8112      2.00000
     15       2.1899      2.00000
     16       2.3595      2.00000
     17       2.8170      2.00000
     18       2.8253      2.00000
     19       6.3114     -0.00000
     20       6.4619     -0.00000
     21       6.6717     -0.00000
     22       8.5567     -0.00000

 k-point     5 :       0.4000    0.2000    0.0000
  band No.  band energies     occupation 
      1     -29.0975      2.00000
      2     -29.0536      2.00000
      3     -29.0260      2.00000
      4     -16.7636      2.00000
      5     -16.6268      2.00000
      6     -16.5720      2.00000
      7     -13.1849      2.00000
      8     -12.6508      2.00000
      9     -12.4257      2.00000
     10      -0.5715      2.00000
     11      -0.0575      2.00000
     12       0.5193      2.00000
     13       0.8213      2.00000
     14       1.2360      2.00000
     15       1.6128      2.00000
     16       2.3005      2.00000
     17       2.5899      2.00000
     18       2.8229      2.00000
     19       6.4397     -0.00000
     20       7.3793     -0.00000
     21       7.4188     -0.00000
     22       8.6975     -0.00000

 k-point     6 :      -0.4000    0.2000    0.0000
  band No.  band energies     occupation 
      1     -29.0975      2.00000
      2     -29.0536      2.00000
      3     -29.0260      2.00000
      4     -16.7635      2.00000
      5     -16.6269      2.00000
      6     -16.5720      2.00000
      7     -13.1849      2.00000
      8     -12.6508      2.00000
      9     -12.4258      2.00000
     10      -0.5712      2.00000
     11      -0.0575      2.00000
     12       0.5192      2.00000
     13       0.8207      2.00000
     14       1.2368      2.00000
     15       1.6136      2.00000
     16       2.3008      2.00000
     17       2.5898      2.00000
     18       2.8223      2.00000
     19       6.4396     -0.00000
     20       7.3792     -0.00000
     21       7.4193     -0.00000
     22       8.6975     -0.00000

 k-point     7 :      -0.2000    0.2000    0.0000
  band No.  band energies     occupation 
      1     -29.0554      2.00000
      2     -29.0550      2.00000
      3     -29.0277      2.00000
      4     -16.6757      2.00000
      5     -16.6322      2.00000
      6     -16.5784      2.00000
      7     -13.4616      2.00000
      8     -12.7030      2.00000
      9     -12.6069      2.00000
     10       0.0156      2.00000
     11       0.4258      2.00000
     12       0.6981      2.00000
     13       1.1533      2.00000
     14       1.8118      2.00000
     15       2.1909      2.00000
     16       2.3600      2.00000
     17       2.8169      2.00000
     18       2.8235      2.00000
     19       6.3117     -0.00000
     20       6.4611     -0.00000
     21       6.6729     -0.00000
     22       8.5567     -0.00000

 k-point     8 :       0.4000    0.4000    0.0000
  band No.  band energies     occupation 
      1     -29.0962      2.00000
      2     -29.0960      2.00000
      3     -29.0243      2.00000
      4     -16.7168      2.00000
      5     -16.7005      2.00000
      6     -16.5648      2.00000
      7     -13.1121      2.00000
      8     -12.3863      2.00000
      9     -12.3304      2.00000
     10      -0.9053      2.00000
     11      -0.6109      2.00000
     12      -0.3981      2.00000
     13       0.8474      2.00000
     14       1.0035      2.00000
     15       1.7753      2.00000
     16       1.8564      2.00000
     17       2.1368      2.00000
     18       3.4866      2.06142
     19       7.3646     -0.00000
     20       7.4091     -0.00000
     21       7.7663     -0.00000
     22       9.0149     -0.00000

 k-point     9 :      -0.4000    0.4000    0.0000
  band No.  band energies     occupation 
      1     -29.0963      2.00000
      2     -29.0960      2.00000
      3     -29.0243      2.00000
      4     -16.7164      2.00000
      5     -16.7009      2.00000
      6     -16.5648      2.00000
      7     -13.1122      2.00000
      8     -12.3861      2.00000
      9     -12.3307      2.00000
     10      -0.9046      2.00000
     11      -0.6116      2.00000
     12      -0.3980      2.00000
     13       0.8461      2.00000
     14       1.0050      2.00000
     15       1.7755      2.00000
     16       1.8570      2.00000
     17       2.1367      2.00000
     18       3.4863      2.06163
     19       7.3644     -0.00000
     20       7.4091     -0.00000
     21       7.7665     -0.00000
     22       9.0150     -0.00000

 k-point    10 :       0.2000    0.2000    0.2000
  band No.  band energies     occupation 
      1     -29.0545      2.00000
      2     -29.0539      2.00000
      3     -29.0539      2.00000
      4     -16.6751      2.00000
      5     -16.6224      2.00000
      6     -16.6224      2.00000
      7     -13.2788      2.00000
      8     -12.6096      2.00000
      9     -12.6096      2.00000
     10      -0.1578      2.00000
     11       0.3950      2.00000
     12       0.3950      2.00000
     13       1.0885      2.00000
     14       1.0885      2.00000
     15       1.4767      2.00000
     16       2.6850      2.00000
     17       2.6850      2.00000
     18       2.9471      2.00000
     19       6.6631     -0.00000
     20       6.7661     -0.00000
     21       6.7661     -0.00000
     22       9.5249      0.00000

 k-point    11 :       0.4000    0.2000    0.2000
  band No.  band energies     occupation 
      1     -29.0965      2.00000
      2     -29.0529      2.00000
      3     -29.0520      2.00000
      4     -16.7369      2.00000
      5     -16.6270      2.00000
      6     -16.6070      2.00000
      7     -13.0142      2.00000
      8     -12.6142      2.00000
      9     -12.4045      2.00000
     10      -0.5904      2.00000
     11      -0.1241      2.00000
     12       0.1949      2.00000
     13       0.3327      2.00000
     14       0.6937      2.00000
     15       1.3896      2.00000
     16       2.5768      2.00000
     17       2.6675      2.00000
     18       2.9844      2.00001
     19       6.8231     -0.00000
     20       7.4561     -0.00000
     21       7.4883     -0.00000
     22       9.6531      0.00000

 k-point    12 :      -0.4000    0.2000    0.2000
  band No.  band energies     occupation 
      1     -29.0965      2.00000
      2     -29.0529      2.00000
      3     -29.0520      2.00000
      4     -16.7367      2.00000
      5     -16.6272      2.00000
      6     -16.6070      2.00000
      7     -13.0144      2.00000
      8     -12.6143      2.00000
      9     -12.4044      2.00000
     10      -0.5901      2.00000
     11      -0.1256      2.00000
     12       0.1963      2.00000
     13       0.3340      2.00000
     14       0.6932      2.00000
     15       1.3900      2.00000
     16       2.5778      2.00000
     17       2.6686      2.00000
     18       2.9822      2.00000
     19       6.8232     -0.00000
     20       7.4553     -0.00000
     21       7.4894     -0.00000
     22       9.6531      0.00000

 k-point    13 :      -0.2000    0.2000    0.2000
  band No.  band energies     occupation 
      1     -29.0544      2.00000
      2     -29.0541      2.00000
      3     -29.0539      2.00000
      4     -16.6744      2.00000
      5     -16.6230      2.00000
      6     -16.6224      2.00000
      7     -13.2791      2.00000
      8     -12.6097      2.00000
      9     -12.6096      2.00000
     10      -0.1595      2.00000
     11       0.3963      2.00000
     12       0.3972      2.00000
     13       1.0887      2.00000
     14       1.0896      2.00000
     15       1.4765      2.00000
     16       2.6870      2.00000
     17       2.6874      2.00000
     18       2.9418      2.00000
     19       6.6627     -0.00000
     20       6.7651     -0.00000
     21       6.7686     -0.00000
     22       9.5254      0.00000

 k-point    14 :       0.4000    0.4000    0.2000
  band No.  band energies     occupation 
      1     -29.0950      2.00000
      2     -29.0947      2.00000
      3     -29.0506      2.00000
      4     -16.6984      2.00000
      5     -16.6840      2.00000
      6     -16.6010      2.00000
      7     -12.8757      2.00000
      8     -12.4019      2.00000
      9     -12.3560      2.00000
     10      -0.7941      2.00000
     11      -0.5748      2.00000
     12      -0.3925      2.00000
     13       0.1149      2.00000
     14       0.2036      2.00000
     15       0.9644      2.00000
     16       2.7193      2.00000
     17       2.7582      2.00000
     18       3.5183      2.02548
     19       7.5338     -0.00000
     20       7.5707     -0.00000
     21       7.8416     -0.00000
     22       9.7771      0.00000

 k-point    15 :      -0.4000    0.4000    0.2000
  band No.  band energies     occupation 
      1     -29.0950      2.00000
      2     -29.0947      2.00000
      3     -29.0506      2.00000
      4     -16.6978      2.00000
      5     -16.6844      2.00000
      6     -16.6010      2.00000
      7     -12.8760      2.00000
      8     -12.4019      2.00000
      9     -12.3558      2.00000
     10      -0.7937      2.00000
     11      -0.5754      2.00000
     12      -0.3922      2.00000
     13       0.1141      2.00000
     14       0.2051      2.00000
     15       0.9642      2.00000
     16       2.7206      2.00000
     17       2.7588      2.00000
     18       3.5173      2.02719
     19       7.5333     -0.00000
     20       7.5708     -0.00000
     21       7.8419     -0.00000
     22       9.7734      0.00000

 k-point    16 :      -0.2000    0.4000    0.2000
  band No.  band energies     occupation 
      1     -29.0965      2.00000
      2     -29.0526      2.00000
      3     -29.0523      2.00000
      4     -16.7368      2.00000
      5     -16.6266      2.00000
      6     -16.6074      2.00000
      7     -13.0149      2.00000
      8     -12.6137      2.00000
      9     -12.4046      2.00000
     10      -0.5904      2.00000
     11      -0.1260      2.00000
     12       0.1982      2.00000
     13       0.3338      2.00000
     14       0.6927      2.00000
     15       1.3890      2.00000
     16       2.5794      2.00000
     17       2.6703      2.00000
     18       2.9804      2.00000
     19       6.8222     -0.00000
     20       7.4576     -0.00000
     21       7.4875     -0.00000
     22       9.6523      0.00000

 k-point    17 :      -0.4000   -0.4000    0.2000
  band No.  band energies     occupation 
      1     -29.0950      2.00000
      2     -29.0947      2.00000
      3     -29.0506      2.00000
      4     -16.6982      2.00000
      5     -16.6840      2.00000
      6     -16.6011      2.00000
      7     -12.8762      2.00000
      8     -12.4015      2.00000
      9     -12.3560      2.00000
     10      -0.7942      2.00000
     11      -0.5745      2.00000
     12      -0.3923      2.00000
     13       0.1150      2.00000
     14       0.2041      2.00000
     15       0.9640      2.00000
     16       2.7214      2.00000
     17       2.7588      2.00000
     18       3.5170      2.02763
     19       7.5325     -0.00000
     20       7.5716     -0.00000
     21       7.8417     -0.00000
     22       9.7720      0.00000

 k-point    18 :       0.4000    0.4000    0.4000
  band No.  band energies     occupation 
      1     -29.0933      2.00000
      2     -29.0925      2.00000
      3     -29.0925      2.00000
      4     -16.6703      2.00000
      5     -16.6568      2.00000
      6     -16.6568      2.00000
      7     -12.4926      2.00000
      8     -12.3985      2.00000
      9     -12.3985      2.00000
     10      -0.7371      2.00000
     11      -0.4961      2.00000
     12      -0.4598      2.00000
     13      -0.4598      2.00000
     14      -0.3476      2.00000
     15      -0.3476      2.00000
     16       3.4546      2.07092
     17       3.4546      2.07092
     18       3.6137      1.65975
     19       7.9375     -0.00000
     20       7.9776     -0.00000
     21       7.9776     -0.00000
     22       9.6884      0.00000

 k-point    19 :      -0.4000    0.4000    0.4000
  band No.  band energies     occupation 
      1     -29.0931      2.00000
      2     -29.0927      2.00000
      3     -29.0925      2.00000
      4     -16.6697      2.00000
      5     -16.6573      2.00000
      6     -16.6568      2.00000
      7     -12.4944      2.00000
      8     -12.3985      2.00000
      9     -12.3967      2.00000
     10      -0.7373      2.00000
     11      -0.4977      2.00000
     12      -0.4592      2.00000
     13      -0.4580      2.00000
     14      -0.3480      2.00000
     15      -0.3475      2.00000
     16       3.4558      2.07091
     17       3.4586      2.07081
     18       3.6095      1.68526
     19       7.9360     -0.00000
     20       7.9783     -0.00000
     21       7.9783     -0.00000
     22       9.6655      0.00000


--------------------------------------------------------------------------------------------------------


 soft charge-density along one line, spin component           1
         0         1         2         3         4         5         6         7         8         9
 total charge-density along one line
 
 pseudopotential strength for first ion, spin component:           1
-30.228  -0.000  -0.000   7.096   0.000   0.000   0.002   0.002
 -0.000 -30.228  -0.000   0.000   7.096   0.000   0.000   0.002
 -0.000  -0.000 -30.228   0.000   0.000   7.096   0.002   0.000
  7.096   0.000   0.000   3.760   0.000   0.000  -0.001  -0.001
  0.000   7.096   0.000   0.000   3.760   0.000  -0.000  -0.001
  0.000   0.000   7.096   0.000   0.000   3.760  -0.001  -0.000
  0.002   0.000   0.002  -0.001  -0.000  -0.001  -3.666  -0.000
  0.002   0.002   0.000  -0.001  -0.001  -0.000  -0.000  -3.666
 -0.001   0.001  -0.001   0.000  -0.001   0.000   0.000  -0.000
  0.000   0.002   0.002  -0.000  -0.001  -0.001  -0.000  -0.000
 -0.001  -0.000   0.001   0.000   0.000  -0.000   0.000   0.000
  0.002   0.000   0.002  -0.001  -0.000  -0.001  -3.847  -0.000
  0.002   0.002   0.000  -0.001  -0.001  -0.000  -0.000  -3.847
 -0.001   0.001  -0.001   0.000  -0.001   0.000   0.000  -0.000
  0.000   0.002   0.002  -0.000  -0.001  -0.001  -0.000  -0.000
 -0.001  -0.000   0.001   0.001   0.000  -0.001   0.000   0.000
 -0.001  -0.001  -0.001  -0.000  -0.000  -0.000   0.000   0.000
 -0.002  -0.002  -0.002  -0.000  -0.000  -0.000   0.000   0.000
 total augmentation occupancy for first ion, spin component:           1
  1.975   0.000   0.000  -0.067   0.000   0.000  -0.001  -0.001   0.000  -0.000   0.000   0.001   0.001  -0.000   0.000  -0.000
  0.000   1.975   0.000   0.000  -0.067   0.000  -0.000  -0.001  -0.000  -0.001   0.000   0.000   0.001   0.000   0.001   0.000
  0.000   0.000   1.975   0.000   0.000  -0.067  -0.001  -0.000   0.000  -0.001  -0.000   0.001   0.000  -0.000   0.001   0.000
 -0.067   0.000   0.000   0.339   0.000   0.000  -0.004  -0.004   0.001  -0.000   0.001   0.003   0.003  -0.000   0.000  -0.001
  0.000  -0.067   0.000   0.000   0.339   0.000  -0.000  -0.004  -0.001  -0.004  -0.000   0.000   0.003   0.001   0.003   0.000
  0.000   0.000  -0.067   0.000   0.000   0.339  -0.004  -0.000   0.001  -0.004  -0.001   0.003   0.000  -0.000   0.003   0.001
 -0.001  -0.000  -0.001  -0.004  -0.000  -0.004   3.667   0.001  -0.000   0.001   0.000  -2.278  -0.000   0.000  -0.000   0.000
 -0.001  -0.001  -0.000  -0.004  -0.004  -0.000   0.001   3.667   0.000   0.001  -0.000  -0.000  -2.278  -0.000  -0.000   0.000
  0.000  -0.000   0.000   0.001  -0.001   0.001  -0.000   0.000  13.344   0.000   0.000   0.000  -0.000  -9.255  -0.000   0.000
 -0.000  -0.001  -0.001  -0.000  -0.004  -0.004   0.001   0.001   0.000   3.667   0.000  -0.000  -0.000  -0.000  -2.278  -0.000
  0.000   0.000  -0.000   0.001   0.000  -0.001   0.000  -0.000   0.000   0.000  13.344  -0.000   0.000  -0.000  -0.000  -9.255
  0.001   0.000   0.001   0.003   0.000   0.003  -2.278  -0.000   0.000  -0.000   0.000   1.422   0.000  -0.000   0.000   0.000
  0.001   0.001   0.000   0.003   0.003   0.000  -0.000  -2.278  -0.000  -0.000   0.000   0.000   1.422   0.000   0.000  -0.000
 -0.000   0.000  -0.000  -0.000   0.001  -0.000   0.000  -0.000  -9.255  -0.000   0.000  -0.000   0.000   6.488   0.000  -0.000
  0.000   0.001   0.001   0.000   0.003   0.003  -0.000  -0.000  -0.000  -2.278  -0.000   0.000   0.000   0.000   1.422   0.000
 -0.000   0.000   0.000  -0.001  -0.000   0.001   0.000   0.000   0.000  -0.000  -9.255   0.000  -0.000   0.000   0.000   6.488
  0.001   0.001   0.001  -0.001  -0.001  -0.001   0.000   0.000  -0.000   0.000   0.000  -0.000  -0.000   0.000  -0.000   0.000
 -0.001  -0.001  -0.001   0.000   0.000   0.000   0.000   0.000  -0.000   0.000  -0.000  -0.000  -0.000   0.000  -0.000   0.000


------------------------ aborting loop because EDIFF is reached ----------------------------------------


    CHARGE:  cpu time    0.00: real time    0.00
    FORLOC:  cpu time    0.00: real time    0.00
    FORNL :  cpu time    0.02: real time    0.02
    STRESS:  cpu time    0.19: real time    0.19
    FORCOR:  cpu time    0.00: real time    0.00
    FORHAR:  cpu time    0.00: real time    0.00
    MIXING:  cpu time    0.00: real time    0.00
    OFIELD:  cpu time    0.00: real time    0.00

  FORCE on cell =-STRESS in cart. coord.  units (eV):
  Direction    XX          YY          ZZ          XY          YZ          ZX
  --------------------------------------------------------------------------------------
  Alpha Z   166.69950   166.69950   166.69950
  Ewald    -759.08459  -759.08459  -759.08459     0.25857     0.25857     0.25857
  Hartree   227.87938   227.87938   227.87938     0.10615     0.10615     0.10615
  E(xc)    -170.16163  -170.16163  -170.16163     0.00014     0.00014     0.00014
  Local     -32.86423   -32.86423   -32.86423    -0.35935    -0.35935    -0.35935
  n-local   -90.45362   -88.71647   -84.89920     0.03553    -0.10429     0.08413
  augment   133.02223   133.02223   133.02223    -0.00000    -0.00000    -0.00000
  Kinetic   513.78955   521.09127   527.97563     0.50740    -1.56954     1.09363
  Fock        0.00000     0.00000     0.00000     0.00000     0.00000     0.00000
  -------------------------------------------------------------------------------------
  Total      -1.58030    -1.58030    -1.58030     0.02113     0.02113     0.02113
  in kB     -43.27294   -43.27294   -43.27294     0.57856     0.57856     0.57856
  external pressure =      -43.27 kB  Pullay stress =        0.00 kB


 VOLUME and BASIS-vectors are now :
 -----------------------------------------------------------------------------
  energy-cutoff  :      400.00
  volume of cell :       58.51
      direct lattice vectors                 reciprocal lattice vectors
     3.882200000  0.000000000  0.000000000     0.257585905  0.000000000  0.000000000
     0.000000000  3.882200000  0.000000000     0.000000000  0.257585905  0.000000000
     0.000000000  0.000000000  3.882200000     0.000000000  0.000000000  0.257585905

  length of vectors
     3.882200000  3.882200000  3.882200000     0.257585905  0.257585905  0.257585905


 FORCES acting on ions
    electron-ion (+dipol)            ewald-force                    non-local-force                 convergence-correction
 -----------------------------------------------------------------------------------------------
   -.306E+01 -.306E+01 -.306E+01   0.321E+01 0.321E+01 0.321E+01   -.480E-01 -.480E-01 -.480E-01   -.169E-02 -.169E-02 -.169E-02
   0.905E+01 0.905E+01 0.905E+01   -.897E+01 -.897E+01 -.897E+01   -.114E+00 -.114E+00 -.114E+00   0.220E-02 0.220E-02 0.220E-02
   0.193E+01 -.356E+01 -.356E+01   -.206E+01 0.391E+01 0.391E+01   0.167E+00 -.405E+00 -.405E+00   0.497E-03 0.224E-03 0.224E-03
   -.356E+01 0.193E+01 -.356E+01   0.391E+01 -.206E+01 0.391E+01   -.405E+00 0.167E+00 -.405E+00   0.224E-03 0.497E-03 0.224E-03
   -.356E+01 -.356E+01 0.193E+01   0.391E+01 0.391E+01 -.206E+01   -.405E+00 -.405E+00 0.167E+00   0.224E-03 0.224E-03 0.497E-03
 -----------------------------------------------------------------------------------------------
   0.804E+00 0.804E+00 0.804E+00   0.000E+00 0.444E-15 0.178E-14   -.806E+00 -.806E+00 -.806E+00   0.146E-02 0.146E-02 0.146E-02
 
 
 POSITION                                       TOTAL-FORCE (eV/Angst)
 -----------------------------------------------------------------------------------
      0.00000      0.00000      0.00000         0.093148      0.093148      0.093148
      1.97992      1.97992      1.97992        -0.032586     -0.032586     -0.032586
      1.94110      0.00000      0.00000         0.038573     -0.049567     -0.049567
      0.00000      1.94110      0.00000        -0.049567      0.038573     -0.049567
      0.00000      0.00000      1.94110        -0.049567     -0.049567      0.038573
 -----------------------------------------------------------------------------------
    total drift:                               -0.000147     -0.000147     -0.000142


--------------------------------------------------------------------------------------------------------



  FREE ENERGIE OF THE ION-ELECTRON SYSTEM (eV)
  ---------------------------------------------------
  free  energy   TOTEN  =       -40.06429432 eV

  energy  without entropy=      -40.07128104  energy(sigma->0) =      -40.06662323
 


--------------------------------------------------------------------------------------------------------


    POTLOK:  cpu time    0.00: real time    0.00


--------------------------------------------------------------------------------------------------------


 stress matrix after NEB project (eV)
     -1.58030      0.02113      0.02113
      0.02113     -1.58030      0.02113
      0.02113      0.02113     -1.58030
  FORCES: max atom, RMS     0.161337    0.076440
  FORCE total and by dimension    0.170925    0.093148
  Stress total and by dimension    2.737649    1.580300


--------------------------------------------------------------------------------------------------------


    WAVPRE:  cpu time    0.00: real time    0.00
 FEWALD executed in parallel
    FEWALD:  cpu time    0.00: real time    0.00
    ORTHCH:  cpu time    0.01: real time    0.01
     LOOP+:  cpu time    2.73: real time    2.73


----------------------------------------- Iteration    2(   1)  ---------------------------------------


    POTLOK:  cpu time    0.00: real time    0.00
    SETDIJ:  cpu time    0.00: real time    0.00
     EDDAV:  cpu time    0.16: real time    0.16
       DOS:  cpu time    0.00: real time    0.00
    CHARGE:  cpu time    0.01: real time    0.01
    MIXING:  cpu time    0.00: real time    0.00
    --------------------------------------------
      LOOP:  cpu time    0.18: real time    0.18

 eigenvalue-minimisations  :  1144
[...]
     17       2.1606      2.00000
     18       3.4363      2.05298
     19       7.4559     -0.00000
     20       7.4965     -0.00000
     21       7.8252     -0.00000
     22       9.0867      0.00000

 k-point     9 :      -0.4000    0.4000    0.0000
  band No.  band energies     occupation 
      1     -29.0244      2.00000
      2     -29.0207      2.00000
      3     -28.9502      2.00000
      4     -16.6816      2.00000
      5     -16.6613      2.00000
      6     -16.5190      2.00000
      7     -13.1165      2.00000
      8     -12.4100      2.00000
      9     -12.3526      2.00000
     10      -0.9354      2.00000
     11      -0.6497      2.00000
     12      -0.3051      2.00000
     13       0.7808      2.00000
     14       0.9616      2.00000
     15       1.7477      2.00000
     16       1.8352      2.00000
     17       2.1615      2.00000
     18       3.4318      2.05690
     19       7.4316     -0.00000
     20       7.5085     -0.00000
     21       7.8309     -0.00000
     22       9.0817      0.00000

 k-point    10 :       0.2000    0.2000    0.2000
  band No.  band energies     occupation 
      1     -28.9819      2.00000
      2     -28.9819      2.00000
      3     -28.9772      2.00000
      4     -16.6422      2.00000
      5     -16.5788      2.00000
      6     -16.5788      2.00000
      7     -13.2857      2.00000
      8     -12.6230      2.00000
      9     -12.6230      2.00000
     10      -0.1467      2.00000
     11       0.3954      2.00000
     12       0.3954      2.00000
     13       1.0169      2.00000
     14       1.0169      2.00000
     15       1.3982      2.00000
     16       2.6029      2.00000
     17       2.6029      2.00000
     18       2.9129      2.00000
     19       6.8122     -0.00000
     20       6.8734     -0.00000
     21       6.8734     -0.00000
     22       9.5972      0.00000

 k-point    11 :       0.4000    0.2000    0.2000
  band No.  band energies     occupation 
      1     -29.0230      2.00000
      2     -28.9799      2.00000
      3     -28.9772      2.00000
      4     -16.7029      2.00000
      5     -16.5871      2.00000
      6     -16.5618      2.00000
      7     -13.0197      2.00000
      8     -12.6314      2.00000
      9     -12.4245      2.00000
     10      -0.5828      2.00000
     11      -0.1305      2.00000
     12       0.1486      2.00000
     13       0.3239      2.00000
     14       0.7111      2.00000
     15       1.3411      2.00000
     16       2.5301      2.00000
     17       2.5799      2.00000
     18       2.9426      2.00001
     19       6.9469     -0.00000
     20       7.5154     -0.00000
     21       7.5778     -0.00000
     22       9.7385      0.00000

 k-point    12 :      -0.4000    0.2000    0.2000
  band No.  band energies     occupation 
      1     -29.0231      2.00000
      2     -28.9799      2.00000
      3     -28.9771      2.00000
      4     -16.7017      2.00000
      5     -16.5878      2.00000
      6     -16.5615      2.00000
      7     -13.0204      2.00000
      8     -12.6321      2.00000
      9     -12.4246      2.00000
     10      -0.6336      2.00000
     11      -0.1639      2.00000
     12       0.1243      2.00000
     13       0.3959      2.00000
     14       0.7495      2.00000
     15       1.3703      2.00000
     16       2.5522      2.00000
     17       2.6036      2.00000
     18       2.9010      2.00000
     19       6.9366     -0.00000
     20       7.4818     -0.00000
     21       7.5954     -0.00000
     22       9.7484      0.00000

 k-point    13 :      -0.2000    0.2000    0.2000
  band No.  band energies     occupation 
      1     -28.9828      2.00000
      2     -28.9819      2.00000
      3     -28.9763      2.00000
      4     -16.6391      2.00000
      5     -16.5809      2.00000
      6     -16.5784      2.00000
      7     -13.2862      2.00000
      8     -12.6241      2.00000
      9     -12.6241      2.00000
     10      -0.1833      2.00000
     11       0.3067      2.00000
     12       0.3448      2.00000
     13       1.0016      2.00000
     14       1.1100      2.00000
     15       1.5478      2.00000
     16       2.6290      2.00000
     17       2.6936      2.00000
     18       2.8321      2.00000
     19       6.6687     -0.00000
     20       6.8966     -0.00000
     21       6.9125     -0.00000
     22       9.4423      0.00000

 k-point    14 :       0.4000    0.4000    0.2000
  band No.  band energies     occupation 
      1     -29.0229      2.00000
      2     -29.0197      2.00000
      3     -28.9766      2.00000
      4     -16.6659      2.00000
      5     -16.6423      2.00000
      6     -16.5569      2.00000
      7     -12.8830      2.00000
      8     -12.4258      2.00000
      9     -12.3760      2.00000
     10      -0.7895      2.00000
     11      -0.5847      2.00000
     12      -0.3506      2.00000
     13       0.0865      2.00000
     14       0.1673      2.00000
     15       0.9916      2.00000
     16       2.6467      2.00000
     17       2.7172      2.00000
     18       3.4674      2.00682
     19       7.6036     -0.00000
     20       7.6495     -0.00000
     21       7.8999     -0.00000
     22       9.7743      0.00000

 k-point    15 :      -0.4000    0.4000    0.2000
  band No.  band energies     occupation 
      1     -29.0231      2.00000
      2     -29.0194      2.00000
      3     -28.9766      2.00000
      4     -16.6635      2.00000
      5     -16.6438      2.00000
      6     -16.5569      2.00000
      7     -12.8853      2.00000
      8     -12.4239      2.00000
      9     -12.3771      2.00000
     10      -0.8262      2.00000
     11      -0.6276      2.00000
     12      -0.2927      2.00000
     13       0.0679      2.00000
     14       0.1819      2.00000
     15       1.0300      2.00000
     16       2.6835      2.00000
     17       2.7136      2.00000
     18       3.4555      2.02867
     19       7.5742     -0.00000
     20       7.6516     -0.00000
     21       7.9072     -0.00000
     22       9.7208      0.00000

 k-point    16 :      -0.2000    0.4000    0.2000
  band No.  band energies     occupation 
      1     -29.0230      2.00000
      2     -28.9811      2.00000
      3     -28.9760      2.00000
      4     -16.7015      2.00000
      5     -16.5859      2.00000
      6     -16.5627      2.00000
      7     -13.0231      2.00000
      8     -12.6291      2.00000
      9     -12.4261      2.00000
     10      -0.6077      2.00000
     11      -0.1791      2.00000
     12       0.1656      2.00000
     13       0.3254      2.00000
     14       0.6737      2.00000
     15       1.4439      2.00000
     16       2.5515      2.00000
     17       2.6709      2.00000
     18       2.8987      2.00000
     19       6.8686     -0.00000
     20       7.5237     -0.00000
     21       7.5726     -0.00000
     22       9.7533      0.00000

 k-point    17 :      -0.4000   -0.4000    0.2000
  band No.  band energies     occupation 
      1     -29.0229      2.00000
      2     -29.0198      2.00000
      3     -28.9765      2.00000
      4     -16.6646      2.00000
      5     -16.6421      2.00000
      6     -16.5570      2.00000
      7     -12.8864      2.00000
      8     -12.4242      2.00000
      9     -12.3766      2.00000
     10      -0.7954      2.00000
     11      -0.6029      2.00000
     12      -0.3783      2.00000
     13       0.0435      2.00000
     14       0.2062      2.00000
     15       1.0594      2.00000
     16       2.6992      2.00000
     17       2.7166      2.00000
     18       3.4549      2.02950
     19       7.5512     -0.00000
     20       7.6661     -0.00000
     21       7.9022     -0.00000
     22       9.6949      0.00000

 k-point    18 :       0.4000    0.4000    0.4000
  band No.  band energies     occupation 
      1     -29.0207      2.00000
      2     -29.0207      2.00000
      3     -29.0160      2.00000
      4     -16.6399      2.00000
      5     -16.6138      2.00000
      6     -16.6138      2.00000
      7     -12.5039      2.00000
      8     -12.4215      2.00000
      9     -12.4215      2.00000
     10      -0.7521      2.00000
     11      -0.4774      2.00000
     12      -0.4774      2.00000
     13      -0.4689      2.00000
     14      -0.3062      2.00000
     15      -0.3062      2.00000
     16       3.3735      2.06811
     17       3.3735      2.06811
     18       3.5772      1.49604
     19       7.9521     -0.00000
     20       8.0477     -0.00000
     21       8.0477     -0.00000
     22       9.7359      0.00000

 k-point    19 :      -0.4000    0.4000    0.4000
  band No.  band energies     occupation 
      1     -29.0213      2.00000
      2     -29.0207      2.00000
      3     -29.0153      2.00000
      4     -16.6382      2.00000
      5     -16.6148      2.00000
      6     -16.6136      2.00000
      7     -12.5144      2.00000
      8     -12.4218      2.00000
      9     -12.4119      2.00000
     10      -0.7727      2.00000
     11      -0.5885      2.00000
     12      -0.5103      2.00000
     13      -0.4626      2.00000
     14      -0.2696      2.00000
     15      -0.1760      2.00000
     16       3.3968      2.07085
     17       3.4146      2.06720
     18       3.5314      1.78030
     19       7.9512     -0.00000
     20       8.0369     -0.00000
     21       8.0591     -0.00000
     22       9.5590      0.00000


--------------------------------------------------------------------------------------------------------


 soft charge-density along one line, spin component           1
         0         1         2         3         4         5         6         7         8         9
 total charge-density along one line
 
 pseudopotential strength for first ion, spin component:           1
-30.163  -0.003  -0.003   7.058   0.002   0.002   0.002   0.002
 -0.003 -30.163  -0.003   0.002   7.058   0.002  -0.000   0.002
 -0.003  -0.003 -30.163   0.002   0.002   7.058   0.002  -0.000
  7.058   0.002   0.002   3.778  -0.001  -0.001   0.002   0.002
  0.002   7.058   0.002  -0.001   3.778  -0.001   0.000   0.002
  0.002   0.002   7.058  -0.001  -0.001   3.778   0.002   0.000
  0.002  -0.000   0.002   0.002   0.000   0.002  -3.625  -0.002
  0.002   0.002  -0.000   0.002   0.002   0.000  -0.002  -3.625
  0.005  -0.010   0.005  -0.003   0.006  -0.003   0.002  -0.001
 -0.000   0.002   0.002   0.000   0.002   0.002  -0.002  -0.002
  0.009  -0.000  -0.009  -0.006   0.000   0.006   0.000   0.001
  0.002  -0.000   0.002   0.002   0.000   0.002  -3.798  -0.002
  0.002   0.002  -0.000   0.002   0.002   0.000  -0.002  -3.798
  0.006  -0.012   0.006  -0.004   0.008  -0.004   0.002  -0.001
 -0.000   0.002   0.002   0.000   0.002   0.002  -0.002  -0.002
  0.011  -0.000  -0.011  -0.007   0.000   0.007   0.000   0.002
  0.004   0.004   0.004  -0.001  -0.001  -0.001   0.001   0.001
  0.011   0.011   0.011  -0.004  -0.004  -0.004   0.002   0.002
 total augmentation occupancy for first ion, spin component:           1
  1.976  -0.000  -0.000  -0.065  -0.000  -0.000  -0.005  -0.005  -0.027   0.000  -0.047   0.005   0.005   0.023  -0.000   0.040
 -0.000   1.976  -0.000  -0.000  -0.065  -0.000   0.000  -0.005   0.054  -0.005   0.000  -0.000   0.005  -0.047   0.005   0.000
 -0.000  -0.000   1.976  -0.000  -0.000  -0.065  -0.005   0.000  -0.027  -0.005   0.047   0.005  -0.000   0.023   0.005  -0.040
 -0.065  -0.000  -0.000   0.340  -0.003  -0.003  -0.050  -0.050  -0.193   0.002  -0.335   0.035   0.035   0.135  -0.002   0.233
 -0.000  -0.065  -0.000  -0.003   0.340  -0.003   0.002  -0.050   0.386  -0.050   0.000  -0.002   0.035  -0.269   0.035  -0.000
 -0.000  -0.000  -0.065  -0.003  -0.003   0.340  -0.050   0.002  -0.193  -0.050   0.335   0.035  -0.002   0.135   0.035  -0.233
 -0.005   0.000  -0.005  -0.050   0.002  -0.050   3.930  -0.007   0.197  -0.007   0.000  -2.459   0.003  -0.142   0.003   0.000
 -0.005  -0.005   0.000  -0.050  -0.050   0.002  -0.007   3.930  -0.099  -0.007   0.171   0.003  -2.459   0.071   0.003  -0.123
 -0.027   0.054  -0.027  -0.193   0.386  -0.193   0.197  -0.099  13.794  -0.099   0.000  -0.143   0.071  -9.600   0.071   0.000
  0.000  -0.005  -0.005   0.002  -0.050  -0.050  -0.007  -0.007  -0.099   3.930  -0.171   0.003   0.003   0.071  -2.459   0.123
 -0.047   0.000   0.047  -0.335   0.000   0.335   0.000   0.171   0.000  -0.171  13.794   0.000  -0.124  -0.000   0.124  -9.600
  0.005  -0.000   0.005   0.035  -0.002   0.035  -2.459   0.003  -0.143   0.003   0.000   1.547  -0.001   0.104  -0.001  -0.000
  0.005   0.005  -0.000   0.035   0.035  -0.002   0.003  -2.459   0.071   0.003  -0.124  -0.001   1.547  -0.052  -0.001   0.090
  0.023  -0.047   0.023   0.135  -0.269   0.135  -0.142   0.071  -9.600   0.071  -0.000   0.104  -0.052   6.751  -0.052   0.000
 -0.000   0.005   0.005  -0.002   0.035   0.035   0.003   0.003   0.071  -2.459   0.124  -0.001  -0.001  -0.052   1.547  -0.090
  0.040   0.000  -0.040   0.233   0.000  -0.233   0.000  -0.123   0.000   0.123  -9.600   0.000   0.090   0.000  -0.090   6.751
  0.004   0.004   0.004   0.070   0.070   0.070  -0.079  -0.079  -0.000  -0.079   0.000   0.054   0.054   0.000   0.054  -0.000
 -0.001  -0.001  -0.001  -0.001  -0.001  -0.001   0.003   0.003   0.000   0.003   0.000  -0.002  -0.002   0.000  -0.002  -0.000


------------------------ aborting loop because EDIFF is reached ----------------------------------------


    CHARGE:  cpu time    0.00: real time    0.00
    FORLOC:  cpu time    0.00: real time    0.00
    FORNL :  cpu time    0.02: real time    0.02
    STRESS:  cpu time    0.21: real time    0.21
    FORCOR:  cpu time    0.00: real time    0.00
    FORHAR:  cpu time    0.00: real time    0.00
    MIXING:  cpu time    0.00: real time    0.00
    OFIELD:  cpu time    0.00: real time    0.00

  FORCE on cell =-STRESS in cart. coord.  units (eV):
  Direction    XX          YY          ZZ          XY          YZ          ZX
  --------------------------------------------------------------------------------------
  Alpha Z   166.69950   166.69950   166.69950
  Ewald    -757.59082  -757.59082  -757.59082    -3.14137    -3.14137    -3.14137
  Hartree   229.50090   229.50090   229.50090    -1.48206    -1.48206    -1.48206
  E(xc)    -170.28963  -170.28963  -170.28963    -0.00558    -0.00558    -0.00558
  Local     -35.53580   -35.53580   -35.53580     4.61423     4.61423     4.61423
  n-local   -90.25831   -88.77463   -85.38479     0.01039    -0.15766     0.03893
  augment   132.90945   132.90945   132.90945    -0.01671    -0.01671    -0.01671
  Kinetic   514.64819   521.54727   528.25054     0.86050    -1.48307     1.18312
  Fock        0.00000     0.00000     0.00000     0.00000     0.00000     0.00000
  -------------------------------------------------------------------------------------
  Total      -0.96364    -0.96364    -0.96364     0.11926     0.11926     0.11926
  in kB     -26.38699   -26.38699   -26.38699     3.26554     3.26554     3.26554
  external pressure =      -26.39 kB  Pullay stress =        0.00 kB


 VOLUME and BASIS-vectors are now :
 -----------------------------------------------------------------------------
  energy-cutoff  :      400.00
  volume of cell :       58.51
      direct lattice vectors                 reciprocal lattice vectors
     3.882200000  0.000000000  0.000000000     0.257585905  0.000000000  0.000000000
     0.000000000  3.882200000  0.000000000     0.000000000  0.257585905  0.000000000
     0.000000000  0.000000000  3.882200000     0.000000000  0.000000000  0.257585905

  length of vectors
     3.882200000  3.882200000  3.882200000     0.257585905  0.257585905  0.257585905


 FORCES acting on ions
    electron-ion (+dipol)            ewald-force                    non-local-force                 convergence-correction
 -----------------------------------------------------------------------------------------------
   0.891E+01 0.891E+01 0.891E+01   -.898E+01 -.898E+01 -.898E+01   0.190E-01 0.190E-01 0.190E-01   0.368E-01 0.368E-01 0.368E-01
   0.226E+02 0.226E+02 0.226E+02   -.222E+02 -.222E+02 -.222E+02   -.381E+00 -.381E+00 -.381E+00   0.621E-02 0.621E-02 0.621E-02
   -.263E+02 -.578E+00 -.578E+00   0.298E+02 0.684E+00 0.684E+00   -.313E+01 -.279E+00 -.279E+00   0.190E-01 -.394E-02 -.394E-02
   -.578E+00 -.263E+02 -.578E+00   0.684E+00 0.298E+02 0.684E+00   -.279E+00 -.313E+01 -.279E+00   -.394E-02 0.190E-01 -.394E-02
   -.578E+00 -.578E+00 -.263E+02   0.684E+00 0.684E+00 0.298E+02   -.279E+00 -.279E+00 -.313E+01   -.394E-02 -.394E-02 0.190E-01
 -----------------------------------------------------------------------------------------------
   0.399E+01 0.399E+01 0.399E+01   0.300E-14 -.355E-14 0.711E-14   -.405E+01 -.405E+01 -.405E+01   0.541E-01 0.541E-01 0.541E-01
 
 
 POSITION                                       TOTAL-FORCE (eV/Angst)
 -----------------------------------------------------------------------------------
      0.07204      0.07204      0.07204        -0.012532     -0.012532     -0.012532
      2.06225      2.06225      2.06225         0.037609      0.037609      0.037609
      1.94110      0.00000      0.00000         0.327525     -0.176301     -0.176301
      0.00000      1.94110      0.00000        -0.176301      0.327525     -0.176301
      0.00000      0.00000      1.94110        -0.176301     -0.176301      0.327525
 -----------------------------------------------------------------------------------
    total drift:                               -0.002661     -0.002661     -0.002668


--------------------------------------------------------------------------------------------------------



  FREE ENERGIE OF THE ION-ELECTRON SYSTEM (eV)
  ---------------------------------------------------
  free  energy   TOTEN  =       -40.08317311 eV

  energy  without entropy=      -40.08992862  energy(sigma->0) =      -40.08542495
 
 d Force = 0.8178825E-04[ 0.158E-04, 0.148E-03]  d Energy = 0.6839225E-04 0.134E-04
 d Force =-0.1496344E+00[-0.153E+00,-0.147E+00]  d Ewald  =-0.1496368E+00 0.232E-05


--------------------------------------------------------------------------------------------------------


    POTLOK:  cpu time    0.01: real time    0.01


--------------------------------------------------------------------------------------------------------


 stress matrix after NEB project (eV)
     -0.96364      0.11926      0.11926
      0.11926     -0.96364      0.11926
      0.11926      0.11926     -0.96364
  FORCES: max atom, RMS     0.065141    0.030707
  FORCE total and by dimension    0.068662    0.037609
  Stress total and by dimension    1.694436    0.963636


--------------------------------------------------------------------------------------------------------


  
 reached required accuracy - stopping structural energy minimisation
 writing wavefunctions
     LOOP+:  cpu time    0.77: real time    0.77
    4ORBIT:  cpu time    0.00: real time    0.00

 total amount of memory used by VASP on root node    40041. kBytes
========================================================================

   base      :      30000. kBytes
   nonl-proj :       8934. kBytes
   fftplans  :        145. kBytes
   grid      :        538. kBytes
   one-center:         77. kBytes
   wavefun   :        347. kBytes
 
  
  
 General timing and accounting informations for this job:
 ========================================================
  
                  Total CPU time used (sec):       15.297
                            User time (sec):       15.104
                          System time (sec):        0.193
                         Elapsed time (sec):       15.311
  
                   Maximum memory used (kb):       65444.
                   Average memory used (kb):           0.
  
                          Minor page faults:        18706
                          Major page faults:            0
                 Voluntary context switches:          117
