 vasp.5.3.5 31Mar14 (build Dec 17 2015 22:09:37) complex                        
  
 executed on             LinuxIFC date 2017.03.19  05:28:38
 running on   22 total cores
 distrk:  each k-point on   22 cores,    1 groups
 distr:  one band on NCORES_PER_BAND=   1 cores,   22 groups


--------------------------------------------------------------------------------------------------------


 INCAR:
 POTCAR:    PAW_PBE Ti_pv 07Sep2000               
 POTCAR:    PAW_PBE Ca_pv 06Sep2000               
 POTCAR:    PAW_PBE O 08Apr2002                   

 ----------------------------------------------------------------------------- 
|                                                                             |
|           W    W    AA    RRRRR   N    N  II  N    N   GGGG   !!!           |
|           W    W   A  A   R    R  NN   N  II  NN   N  G    G  !!!           |
|           W    W  A    A  R    R  N N  N  II  N N  N  G       !!!           |
|           W WW W  AAAAAA  RRRRR   N  N N  II  N  N N  G  GGG   !            |
|           WW  WW  A    A  R   R   N   NN  II  N   NN  G    G                |
|           W    W  A    A  R    R  N    N  II  N    N   GGGG   !!!           |
|                                                                             |
|      For optimal performance we recommend to set                            |
|        NCORE= 4 - approx SQRT( number of cores)                             |
|      NCORE specifies how many cores store one orbital (NPAR=cpu/NCORE).     |
|      This setting can  greatly improve the performance of VASP for DFT.     |
|      The default, NPAR=number of cores might be grossly inefficient         |
|      on modern multi-core architectures or massively parallel machines.     |
|      Do your own testing !!!!                                               |
|      Unfortunately you need to use the default for GW and RPA calculations. |
|      (for HF NCORE is supported but not extensively tested yet)             |
|                                                                             |
 ----------------------------------------------------------------------------- 

 POTCAR:    PAW_PBE Ti_pv 07Sep2000               
   VRHFIN =Ti: d3 s1                                                            
   LEXCH  = PE                                                                  
   EATOM  =  1042.5995 eV,   76.6289 Ry                                         
                                                                                
   TITEL  = PAW_PBE Ti_pv 07Sep2000                                             
   LULTRA =        F    use ultrasoft PP ?                                      
   IUNSCR =        1    unscreen: 0-lin 1-nonlin 2-no                           
   RPACOR =    2.200    partial core radius                                     
   POMASS =   47.880; ZVAL   =   10.000    mass and valenz                      
   RCORE  =    2.500    outmost cutoff radius                                   
   RWIGS  =    2.500; RWIGS  =    1.323    wigner-seitz radius (au A)           
   ENMAX  =  222.335; ENMIN  =  166.751 eV                                      
   RCLOC  =    1.701    cutoff for local pot                                    
   LCOR   =        T    correct aug charges                                     
   LPAW   =        T    paw PP                                                  
   EAUG   =  482.848                                                            
   DEXC   =    0.000                                                            
   RMAX   =    2.564    core radius for proj-oper                               
   RAUG   =    1.300    factor for augmentation sphere                          
   RDEP   =    2.538    radius for radial grids                                 
   RDEPT  =    1.952    core radius for aug-charge                              
                                                                                
   Atomic configuration                                                         
    8 entries                                                                   
     n  l   j            E        occ.                                          
     1  0  0.50     -4865.3608   2.0000                                         
     2  0  0.50      -533.1368   2.0000                                         
     2  1  1.50      -440.5031   6.0000                                         
     3  0  0.50       -59.3186   2.0000                                         
     3  1  1.50       -35.7012   6.0000                                         
     3  2  2.50        -1.9157   3.0000                                         
     4  0  0.50        -3.7291   1.0000                                         
     4  3  2.50        -1.3606   0.0000                                         
   Description                                                                  
     l       E           TYP  RCUT    TYP  RCUT                                 
     1    -35.7012140     23  2.300                                             
     1     -1.3605826     23  2.300                                             
     2     -1.9156996     23  2.500                                             
     2     -0.4063033     23  2.500                                             
     0     -3.7290856     23  2.500                                             
     0     20.4087390     23  2.500                                             
  local pseudopotential read in
  partial core-charges read in
  partial kinetic energy density read in
  atomic valenz-charges read in
  non local Contribution for L=           1  read in
    real space projection operators read in
  non local Contribution for L=           1  read in
    real space projection operators read in
  non local Contribution for L=           2  read in
    real space projection operators read in
  non local Contribution for L=           2  read in
    real space projection operators read in
  non local Contribution for L=           0  read in
    real space projection operators read in
  non local Contribution for L=           0  read in
    real space projection operators read in
    PAW grid and wavefunctions read in
 
   number of l-projection  operators is LMAX  =           6
   number of lm-projection operators is LMMAX =          18
 
 POTCAR:    PAW_PBE Ca_pv 06Sep2000               
   VRHFIN =Ca: p6s2d0.01                                                        
   LEXCH  = PE                                                                  
   EATOM  =   612.6676 eV,   45.0298 Ry                                         
                                                                                
   TITEL  = PAW_PBE Ca_pv 06Sep2000                                             
   LULTRA =        F    use ultrasoft PP ?                                      
   IUNSCR =        1    unscreen: 0-lin 1-nonlin 2-no                           
   RPACOR =    2.300    partial core radius                                     
   POMASS =   40.078; ZVAL   =    8.000    mass and valenz                      
   RCORE  =    3.000    outmost cutoff radius                                   
   RWIGS  =    3.300; RWIGS  =    1.746    wigner-seitz radius (au A)           
   ENMAX  =  119.559; ENMIN  =   89.670 eV                                      
   RCLOC  =    1.709    cutoff for local pot                                    
   LCOR   =        T    correct aug charges                                     
   LPAW   =        T    paw PP                                                  
   EAUG   =  325.799                                                            
   DEXC   =    0.000                                                            
   RMAX   =    3.072    core radius for proj-oper                               
   RAUG   =    1.300    factor for augmentation sphere                          
   RDEP   =    3.090    radius for radial grids                                 
   RDEPT  =    2.377    core radius for aug-charge                              
                                                                                
   Atomic configuration                                                         
    7 entries                                                                   
     n  l   j            E        occ.                                          
     1  0  0.50     -3949.1705   2.0000                                         
     2  0  0.50      -414.3434   2.0000                                         
     2  1  1.50      -334.7047   6.0000                                         
     3  0  0.50       -47.0896   2.0000                                         
     3  1  1.50       -28.0061   6.0000                                         
     4  0  0.50        -3.7663   2.0000                                         
     3  2  1.50        -4.0817   0.0000                                         
   Description                                                                  
     l       E           TYP  RCUT    TYP  RCUT                                 
     1    -28.0060855     23  3.000                                             
     1      1.3605826     23  3.000                                             
     0     -3.7663320     23  3.000                                             
     0      4.1207953     23  3.000                                             
     2     -4.0817478     23  3.000                                             
     2     -0.8716232     23  3.000                                             
  local pseudopotential read in
  partial core-charges read in
  partial kinetic energy density read in
  atomic valenz-charges read in
  non local Contribution for L=           1  read in
    real space projection operators read in
  non local Contribution for L=           1  read in
    real space projection operators read in
  non local Contribution for L=           0  read in
    real space projection operators read in
  non local Contribution for L=           0  read in
    real space projection operators read in
  non local Contribution for L=           2  read in
    real space projection operators read in
  non local Contribution for L=           2  read in
    real space projection operators read in
    PAW grid and wavefunctions read in
 
   number of l-projection  operators is LMAX  =           6
   number of lm-projection operators is LMMAX =          18
 
 POTCAR:    PAW_PBE O 08Apr2002                   
   VRHFIN =O: s2p4                                                              
   LEXCH  = PE                                                                  
   EATOM  =   432.3788 eV,   31.7789 Ry                                         
                                                                                
   TITEL  = PAW_PBE O 08Apr2002                                                 
   LULTRA =        F    use ultrasoft PP ?                                      
   IUNSCR =        1    unscreen: 0-lin 1-nonlin 2-no                           
   RPACOR =    1.200    partial core radius                                     
   POMASS =   16.000; ZVAL   =    6.000    mass and valenz                      
   RCORE  =    1.520    outmost cutoff radius                                   
   RWIGS  =    1.550; RWIGS  =    0.820    wigner-seitz radius (au A)           
   ENMAX  =  400.000; ENMIN  =  300.000 eV                                      
   ICORE  =        2    local potential                                         
   LCOR   =        T    correct aug charges                                     
   LPAW   =        T    paw PP                                                  
   EAUG   =  605.392                                                            
   DEXC   =    0.000                                                            
   RMAX   =    1.553    core radius for proj-oper                               
   RAUG   =    1.300    factor for augmentation sphere                          
   RDEP   =    1.550    radius for radial grids                                 
   RDEPT  =    1.329    core radius for aug-charge                              
                                                                                
   Atomic configuration                                                         
    4 entries                                                                   
     n  l   j            E        occ.                                          
     1  0  0.50      -514.6923   2.0000                                         
     2  0  0.50       -23.9615   2.0000                                         
     2  1  0.50        -9.0305   4.0000                                         
     3  2  1.50        -9.5241   0.0000                                         
   Description                                                                  
     l       E           TYP  RCUT    TYP  RCUT                                 
     0    -23.9615318     23  1.200                                             
     0     -9.5240782     23  1.200                                             
     1     -9.0304911     23  1.520                                             
     1      8.1634956     23  1.520                                             
     2     -9.5240782      7  1.500                                             
  local pseudopotential read in
  partial core-charges read in
  partial kinetic energy density read in
  kinetic energy density of atom read in
  atomic valenz-charges read in
  non local Contribution for L=           0  read in
    real space projection operators read in
  non local Contribution for L=           0  read in
    real space projection operators read in
  non local Contribution for L=           1  read in
    real space projection operators read in
  non local Contribution for L=           1  read in
    real space projection operators read in
    PAW grid and wavefunctions read in
 
   number of l-projection  operators is LMAX  =           4
   number of lm-projection operators is LMMAX =           8
 
  PAW_PBE Ti_pv 07Sep2000               :
 energy of atom  1       EATOM=-1042.5995
 kinetic energy error for atom=    0.0037 (will be added to EATOM!!)
  PAW_PBE Ca_pv 06Sep2000               :
 energy of atom  2       EATOM= -612.6676
 kinetic energy error for atom=    0.0002 (will be added to EATOM!!)
  PAW_PBE O 08Apr2002                   :
 energy of atom  3       EATOM= -432.3788
 kinetic energy error for atom=    0.1156 (will be added to EATOM!!)
 
 
 POSCAR: CaTiO3                                  
  positions in direct lattice
  velocities in cartesian coordinates
  No initial velocities read in
 exchange correlation table for  LEXCH =        8
   RHO(1)=    0.500       N(1)  =     2000
   RHO(2)=  100.500       N(2)  =     4000

 VTST: version 3.1, (03/28/14)

 CHAIN: initializing optimizer
 
 OPT: Using VASP Conjugate-Gradient optimizer
 CHAIN: Read ICHAIN            0
 
 POSCAR: CaTiO3                                  
  positions in direct lattice
  velocities in cartesian coordinates
  No initial velocities read in
 


--------------------------------------------------------------------------------------------------------


 ion  position               nearest neighbor table
   1  0.000  0.000  0.000-   3 1.94   4 1.94   5 1.94   5 1.94   4 1.94   3 1.94   2 3.23   2 3.27
                             2 3.32   2 3.37   2 3.37   2 3.41   2 3.45   2 3.50
   2  0.510  0.520  0.530-   3 2.61   4 2.64   5 2.67   4 2.69   5 2.72   3 2.72   3 2.78   5 2.78
                             4 2.80   5 2.83   4 2.86   3 2.88   1 3.23   1 3.27   1 3.32   1 3.37
   3  0.500  0.000  0.000-   1 1.94   1 1.94   2 2.61   2 2.72   2 2.78   2 2.88
   4  0.000  0.500  0.000-   1 1.94   1 1.94   2 2.64   2 2.69   2 2.80   2 2.86
   5  0.000  0.000  0.500-   1 1.94   1 1.94   2 2.67   2 2.72   2 2.78   2 2.83
 
  LATTYP: Found a simple cubic cell.
 ALAT       =     3.8822000000
  
  Lattice vectors:
  
 A1 = (   3.8822000000,   0.0000000000,   0.0000000000)
 A2 = (   0.0000000000,   3.8822000000,   0.0000000000)
 A3 = (   0.0000000000,   0.0000000000,   3.8822000000)


Analysis of symmetry for initial positions (statically):
=====================================================================
 Subroutine PRICEL returns:
 Original cell was already a primitive cell.
 

 Routine SETGRP: Setting up the symmetry group for a 
 simple cubic supercell.


 Subroutine GETGRP returns: Found  1 space group operations
 (whereof  1 operations were pure point group operations)
 out of a pool of 48 trial point group operations.


The static configuration has the point symmetry C_1 .


Analysis of symmetry for dynamics (positions and initial velocities):
=====================================================================
 Subroutine PRICEL returns:
 Original cell was already a primitive cell.
 

 Routine SETGRP: Setting up the symmetry group for a 
 simple cubic supercell.


 Subroutine GETGRP returns: Found  1 space group operations
 (whereof  1 operations were pure point group operations)
 out of a pool of 48 trial point group operations.


The dynamic configuration has the point symmetry C_1 .


Analysis of constrained symmetry for selective dynamics:
=====================================================================
 Subroutine PRICEL returns:
 Original cell was already a primitive cell.
 

 Routine SETGRP: Setting up the symmetry group for a 
 simple cubic supercell.


 Subroutine GETGRP returns: Found  1 space group operations
 (whereof  1 operations were pure point group operations)
 out of a pool of 48 trial point group operations.


The constrained configuration has the point symmetry C_1 .
 
 
 KPOINTS: k-points                                

Automatic generation of k-mesh.
Space group operators:
 irot       det(A)        alpha          n_x          n_y          n_z        tau_x        tau_y        tau_z
    1     1.000000     0.000000     1.000000     0.000000     0.000000     0.000000     0.000000     0.000000
 
 Subroutine IBZKPT returns following result:
 ===========================================
 
 Found     63 irreducible k-points:
 
 Following reciprocal coordinates:
            Coordinates               Weight
  0.000000  0.000000  0.000000      1.000000
  0.200000  0.000000  0.000000      2.000000
  0.400000  0.000000  0.000000      2.000000
  0.000000  0.200000  0.000000      2.000000
  0.200000  0.200000  0.000000      2.000000
  0.400000  0.200000  0.000000      2.000000
 -0.400000  0.200000  0.000000      2.000000
 -0.200000  0.200000  0.000000      2.000000
  0.000000  0.400000  0.000000      2.000000
  0.200000  0.400000  0.000000      2.000000
  0.400000  0.400000  0.000000      2.000000
 -0.400000  0.400000  0.000000      2.000000
 -0.200000  0.400000  0.000000      2.000000
  0.000000  0.000000  0.200000      2.000000
  0.200000  0.000000  0.200000      2.000000
  0.400000  0.000000  0.200000      2.000000
 -0.400000  0.000000  0.200000      2.000000
 -0.200000  0.000000  0.200000      2.000000
  0.000000  0.200000  0.200000      2.000000
  0.200000  0.200000  0.200000      2.000000
  0.400000  0.200000  0.200000      2.000000
 -0.400000  0.200000  0.200000      2.000000
 -0.200000  0.200000  0.200000      2.000000
  0.000000  0.400000  0.200000      2.000000
  0.200000  0.400000  0.200000      2.000000
  0.400000  0.400000  0.200000      2.000000
 -0.400000  0.400000  0.200000      2.000000
 -0.200000  0.400000  0.200000      2.000000
  0.000000 -0.400000  0.200000      2.000000
  0.200000 -0.400000  0.200000      2.000000
  0.400000 -0.400000  0.200000      2.000000
 -0.400000 -0.400000  0.200000      2.000000
 -0.200000 -0.400000  0.200000      2.000000
  0.000000 -0.200000  0.200000      2.000000
  0.200000 -0.200000  0.200000      2.000000
  0.400000 -0.200000  0.200000      2.000000
 -0.400000 -0.200000  0.200000      2.000000
 -0.200000 -0.200000  0.200000      2.000000
  0.000000  0.000000  0.400000      2.000000
  0.200000  0.000000  0.400000      2.000000
  0.400000  0.000000  0.400000      2.000000
 -0.400000  0.000000  0.400000      2.000000
 -0.200000  0.000000  0.400000      2.000000
  0.000000  0.200000  0.400000      2.000000
  0.200000  0.200000  0.400000      2.000000
  0.400000  0.200000  0.400000      2.000000
 -0.400000  0.200000  0.400000      2.000000
 -0.200000  0.200000  0.400000      2.000000
  0.000000  0.400000  0.400000      2.000000
  0.200000  0.400000  0.400000      2.000000
  0.400000  0.400000  0.400000      2.000000
 -0.400000  0.400000  0.400000      2.000000
 -0.200000  0.400000  0.400000      2.000000
  0.000000 -0.400000  0.400000      2.000000
  0.200000 -0.400000  0.400000      2.000000
  0.400000 -0.400000  0.400000      2.000000
 -0.400000 -0.400000  0.400000      2.000000
 -0.200000 -0.400000  0.400000      2.000000
  0.000000 -0.200000  0.400000      2.000000
  0.200000 -0.200000  0.400000      2.000000
  0.400000 -0.200000  0.400000      2.000000
 -0.400000 -0.200000  0.400000      2.000000
 -0.200000 -0.200000  0.400000      2.000000
 
 Following cartesian coordinates:
            Coordinates               Weight
  0.000000  0.000000  0.000000      1.000000
  0.200000  0.000000  0.000000      2.000000
  0.400000  0.000000  0.000000      2.000000
  0.000000  0.200000  0.000000      2.000000
  0.200000  0.200000  0.000000      2.000000
  0.400000  0.200000  0.000000      2.000000
 -0.400000  0.200000  0.000000      2.000000
 -0.200000  0.200000  0.000000      2.000000
  0.000000  0.400000  0.000000      2.000000
  0.200000  0.400000  0.000000      2.000000
  0.400000  0.400000  0.000000      2.000000
 -0.400000  0.400000  0.000000      2.000000
 -0.200000  0.400000  0.000000      2.000000
  0.000000  0.000000  0.200000      2.000000
  0.200000  0.000000  0.200000      2.000000
  0.400000  0.000000  0.200000      2.000000
 -0.400000  0.000000  0.200000      2.000000
 -0.200000  0.000000  0.200000      2.000000
  0.000000  0.200000  0.200000      2.000000
  0.200000  0.200000  0.200000      2.000000
  0.400000  0.200000  0.200000      2.000000
 -0.400000  0.200000  0.200000      2.000000
 -0.200000  0.200000  0.200000      2.000000
  0.000000  0.400000  0.200000      2.000000
  0.200000  0.400000  0.200000      2.000000
  0.400000  0.400000  0.200000      2.000000
 -0.400000  0.400000  0.200000      2.000000
 -0.200000  0.400000  0.200000      2.000000
  0.000000 -0.400000  0.200000      2.000000
  0.200000 -0.400000  0.200000      2.000000
  0.400000 -0.400000  0.200000      2.000000
 -0.400000 -0.400000  0.200000      2.000000
 -0.200000 -0.400000  0.200000      2.000000
  0.000000 -0.200000  0.200000      2.000000
  0.200000 -0.200000  0.200000      2.000000
  0.400000 -0.200000  0.200000      2.000000
 -0.400000 -0.200000  0.200000      2.000000
 -0.200000 -0.200000  0.200000      2.000000
  0.000000  0.000000  0.400000      2.000000
  0.200000  0.000000  0.400000      2.000000
  0.400000  0.000000  0.400000      2.000000
 -0.400000  0.000000  0.400000      2.000000
 -0.200000  0.000000  0.400000      2.000000
  0.000000  0.200000  0.400000      2.000000
  0.200000  0.200000  0.400000      2.000000
  0.400000  0.200000  0.400000      2.000000
 -0.400000  0.200000  0.400000      2.000000
 -0.200000  0.200000  0.400000      2.000000
  0.000000  0.400000  0.400000      2.000000
  0.200000  0.400000  0.400000      2.000000
  0.400000  0.400000  0.400000      2.000000
 -0.400000  0.400000  0.400000      2.000000
 -0.200000  0.400000  0.400000      2.000000
  0.000000 -0.400000  0.400000      2.000000
  0.200000 -0.400000  0.400000      2.000000
  0.400000 -0.400000  0.400000      2.000000
 -0.400000 -0.400000  0.400000      2.000000
 -0.200000 -0.400000  0.400000      2.000000
  0.000000 -0.200000  0.400000      2.000000
  0.200000 -0.200000  0.400000      2.000000
  0.400000 -0.200000  0.400000      2.000000
 -0.400000 -0.200000  0.400000      2.000000
 -0.200000 -0.200000  0.400000      2.000000
 


--------------------------------------------------------------------------------------------------------




 Dimension of arrays:
   k-points           NKPTS =     63   k-points in BZ     NKDIM =     63   number of bands    NBANDS=     22
   number of dos      NEDOS =    301   number of ions     NIONS =      5
   non local maximal  LDIM  =      6   non local SUM 2l+1 LMDIM =     18
   total plane-waves  NPLWV =   8000
   max r-space proj   IRMAX =      1   max aug-charges    IRDMAX=   9776
   dimension x,y,z NGX =    20 NGY =   20 NGZ =   20
   dimension x,y,z NGXF=    40 NGYF=   40 NGZF=   40
   support grid    NGXF=    40 NGYF=   40 NGZF=   40
   ions per type =               1   1   3
 NGX,Y,Z   is equivalent  to a cutoff of   8.56,  8.56,  8.56 a.u.
 NGXF,Y,Z  is equivalent  to a cutoff of  17.13, 17.13, 17.13 a.u.


 I would recommend the setting:
   dimension x,y,z NGX =    19 NGY =   19 NGZ =   19
 SYSTEM =  unknown system                          
 POSCAR =  CaTiO3                                  

 Startparameter for this run:
   NWRITE =      2    write-flag & timer
   PREC   = normal    normal or accurate (medium, high low for compatibility)
   ISTART =      1    job   : 0-new  1-cont  2-samecut
   ICHARG =      0    charge: 1-file 2-atom 10-const
   ISPIN  =      1    spin polarized calculation?
   LNONCOLLINEAR =      F non collinear calculations
   LSORBIT =      F    spin-orbit coupling
   INIWAV =      1    electr: 0-lowe 1-rand  2-diag
   LASPH  =      F    aspherical Exc in radial PAW
   METAGGA=      F    non-selfconsistent MetaGGA calc.

 Electronic Relaxation 1
   ENCUT  =  400.0 eV  29.40 Ry    5.42 a.u.   6.33  6.33  6.33*2*pi/ulx,y,z
   ENINI  =  400.0     initial cutoff
   ENAUG  =  605.4 eV  augmentation charge cutoff
   NELM   =     60;   NELMIN=  2; NELMDL=  0     # of ELM steps 
   EDIFF  = 0.1E-03   stopping-criterion for ELM
   LREAL  =      F    real-space projection
   NLSPLINE    = F    spline interpolate recip. space projectors
   LCOMPAT=      F    compatible to vasp.4.4
   GGA_COMPAT  = T    GGA compatible to vasp.4.4-vasp.4.6
   LMAXPAW     = -100 max onsite density
   LMAXMIX     =    2 max onsite mixed and CHGCAR
   VOSKOWN=      0    Vosko Wilk Nusair interpolation
   ROPT   =    0.00000   0.00000   0.00000
 Ionic relaxation
   EDIFFG = 0.1E-02   stopping-criterion for IOM
   NSW    =   1024    number of steps for IOM
   NBLOCK =      1;   KBLOCK =   1024    inner block; outer block 
   IBRION =      2    ionic relax: 0-MD 1-quasi-New 2-CG
   NFREE  =      1    steps in history (QN), initial steepest desc. (CG)
   ISIF   =      2    stress and relaxation
   IWAVPR =     11    prediction:  0-non 1-charg 2-wave 3-comb
   ISYM   =      2    0-nonsym 1-usesym 2-fastsym
   LCORR  =      T    Harris-Foulkes like correction to forces

   POTIM  = 0.5000    time-step for ionic-motion
   TEIN   =    0.0    initial temperature
   TEBEG  =    0.0;   TEEND  =   0.0 temperature during run
   SMASS  =  -3.00    Nose mass-parameter (am)
   estimated Nose-frequenzy (Omega)   =  0.10E-29 period in steps =****** mass=  -0.344E-27a.u.
   SCALEE = 1.0000    scale energy and forces
   NPACO  =    256;   APACO  = 16.0  distance and # of slots for P.C.
   PSTRESS=    0.0 pullay stress

  Mass of Ions in am
   POMASS =  47.88 40.08 16.00
  Ionic Valenz
   ZVAL   =  10.00  8.00  6.00
  Atomic Wigner-Seitz radii
   RWIGS  =  -1.00 -1.00 -1.00
  virtual crystal weights 
   VCA    =   1.00  1.00  1.00
   NELECT =      36.0000    total number of electrons
   NUPDOWN=      -1.0000    fix difference up-down

 DOS related values:
   EMIN   =  10.00;   EMAX   =-10.00  energy-range for DOS
   EFERMI =   0.00
   ISMEAR =     1;   SIGMA  =   0.20  broadening in eV -4-tet -1-fermi 0-gaus

 Electronic relaxation 2 (details)
   IALGO  =     38    algorithm
   LDIAG  =      T    sub-space diagonalisation (order eigenvalues)
   LSUBROT=      F    optimize rotation matrix (better conditioning)
   TURBO    =      0    0=normal 1=particle mesh
   IRESTART =      0    0=no restart 2=restart with 2 vectors
   NREBOOT  =      0    no. of reboots
   NMIN     =      0    reboot dimension
   EREF     =   0.00    reference energy to select bands
   IMIX   =      4    mixing-type and parameters
     AMIX     =   0.40;   BMIX     =  1.00
     AMIX_MAG =   1.60;   BMIX_MAG =  1.00
     AMIN     =   0.10
     WC   =   100.;   INIMIX=   1;  MIXPRE=   1;  MAXMIX= -45

 Intra band minimization:
   WEIMIN = 0.0010     energy-eigenvalue tresh-hold
   EBREAK =  0.11E-05  absolut break condition
   DEPER  =   0.30     relativ break condition  

   TIME   =   0.40     timestep for ELM

  volume/ion in A,a.u.               =      11.70        78.97
  Fermi-wavevector in a.u.,A,eV,Ry     =   1.392401  2.631257 26.378723  1.938781
  Thomas-Fermi vector in A             =   2.516148
 
 Write flags
   LWAVE  =      T    write WAVECAR
   LCHARG =      T    write CHGCAR
   LVTOT  =      F    write LOCPOT, total local potential
   LVHAR  =      F    write LOCPOT, Hartree potential only
   LELF   =      F    write electronic localiz. function (ELF)
   LORBIT =      0    0 simple, 1 ext, 2 COOP (PROOUT)


 Dipole corrections
   LMONO  =      F    monopole corrections only (constant potential shift)
   LDIPOL =      F    correct potential (dipole corrections)
   IDIPOL =      0    1-x, 2-y, 3-z, 4-all directions 
   EPSILON=  1.0000000 bulk dielectric constant

 Exchange correlation treatment:
   GGA     =    --    GGA type
   LEXCH   =     8    internal setting for exchange type
   VOSKOWN=      0    Vosko Wilk Nusair interpolation
   LHFCALC =     F    Hartree Fock is set to
   LHFONE  =     F    Hartree Fock one center treatment
   AEXX    =    0.0000 exact exchange contribution

 Linear response parameters
   LEPSILON=     F    determine dielectric tensor
   LRPA    =     F    only Hartree local field effects (RPA)
   LNABLA  =     F    use nabla operator in PAW spheres
   LVEL    =     F    velocity operator in full k-point grid
   LINTERFAST=   F  fast interpolation
   KINTER  =     0    interpolate to denser k-point grid
   CSHIFT  =0.1000    complex shift for real part using Kramers Kronig
   OMEGAMAX=  -1.0    maximum frequency
   DEG_THRESHOLD= 0.2000000E-02 threshold for treating states as degnerate
   RTIME   =    0.100 relaxation time in fs

 Orbital magnetization related:
   ORBITALMAG=     F  switch on orbital magnetization
   LCHIMAG   =     F  perturbation theory with respect to B field
   DQ        =  0.001000  dq finite difference perturbation B field



--------------------------------------------------------------------------------------------------------


 conjugate gradient relaxation of ions
   using selective dynamics as specified on POSCAR
 charge density and potential will be updated during run
 non-spin polarized calculation
 Variant of blocked Davidson
 Davidson routine will perform the subspace rotation
 perform sub-space diagonalisation
    after iterative eigenvector-optimisation
 modified Broyden-mixing scheme, WC =      100.0
 initial mixing is a Kerker type mixing with AMIX =  0.4000 and BMIX =      1.0000
 Hartree-type preconditioning will be used
 using additional bands            4
 reciprocal scheme for non local part
 use partial core corrections
 calculate Harris-corrections to forces 
   (improved forces if not selfconsistent)
 use gradient corrections 
 use of overlap-Matrix (Vanderbilt PP)
 Methfessel and Paxton  Order N= 1 SIGMA  =   0.20


--------------------------------------------------------------------------------------------------------


  energy-cutoff  :      400.00
  volume of cell :       58.51
      direct lattice vectors                 reciprocal lattice vectors
     3.882200000  0.000000000  0.000000000     0.257585905  0.000000000  0.000000000
     0.000000000  3.882200000  0.000000000     0.000000000  0.257585905  0.000000000
     0.000000000  0.000000000  3.882200000     0.000000000  0.000000000  0.257585905

  length of vectors
     3.882200000  3.882200000  3.882200000     0.257585905  0.257585905  0.257585905


 
 old parameters found on file WAVECAR:
  energy-cutoff  :      400.00
  volume of cell :       58.51
      direct lattice vectors                 reciprocal lattice vectors
     3.882200000  0.000000000  0.000000000     0.257585905  0.000000000  0.000000000
     0.000000000  3.882200000  0.000000000     0.000000000  0.257585905  0.000000000
     0.000000000  0.000000000  3.882200000     0.000000000  0.000000000  0.257585905

  length of vectors

 
 k-points in units of 2pi/SCALE and weight: k-points                                
   0.00000000  0.00000000  0.00000000       0.008
   0.20000000  0.00000000  0.00000000       0.016
   0.40000000  0.00000000  0.00000000       0.016
   0.00000000  0.20000000  0.00000000       0.016
   0.20000000  0.20000000  0.00000000       0.016
   0.40000000  0.20000000  0.00000000       0.016
  -0.40000000  0.20000000  0.00000000       0.016
  -0.20000000  0.20000000  0.00000000       0.016
   0.00000000  0.40000000  0.00000000       0.016
   0.20000000  0.40000000  0.00000000       0.016
   0.40000000  0.40000000  0.00000000       0.016
  -0.40000000  0.40000000  0.00000000       0.016
  -0.20000000  0.40000000  0.00000000       0.016
   0.00000000  0.00000000  0.20000000       0.016
   0.20000000  0.00000000  0.20000000       0.016
   0.40000000  0.00000000  0.20000000       0.016
  -0.40000000  0.00000000  0.20000000       0.016
  -0.20000000  0.00000000  0.20000000       0.016
   0.00000000  0.20000000  0.20000000       0.016
   0.20000000  0.20000000  0.20000000       0.016
   0.40000000  0.20000000  0.20000000       0.016
  -0.40000000  0.20000000  0.20000000       0.016
  -0.20000000  0.20000000  0.20000000       0.016
   0.00000000  0.40000000  0.20000000       0.016
   0.20000000  0.40000000  0.20000000       0.016
   0.40000000  0.40000000  0.20000000       0.016
  -0.40000000  0.40000000  0.20000000       0.016
  -0.20000000  0.40000000  0.20000000       0.016
   0.00000000 -0.40000000  0.20000000       0.016
   0.20000000 -0.40000000  0.20000000       0.016
   0.40000000 -0.40000000  0.20000000       0.016
  -0.40000000 -0.40000000  0.20000000       0.016
  -0.20000000 -0.40000000  0.20000000       0.016
   0.00000000 -0.20000000  0.20000000       0.016
   0.20000000 -0.20000000  0.20000000       0.016
   0.40000000 -0.20000000  0.20000000       0.016
  -0.40000000 -0.20000000  0.20000000       0.016
  -0.20000000 -0.20000000  0.20000000       0.016
   0.00000000  0.00000000  0.40000000       0.016
   0.20000000  0.00000000  0.40000000       0.016
   0.40000000  0.00000000  0.40000000       0.016
  -0.40000000  0.00000000  0.40000000       0.016
  -0.20000000  0.00000000  0.40000000       0.016
   0.00000000  0.20000000  0.40000000       0.016
   0.20000000  0.20000000  0.40000000       0.016
   0.40000000  0.20000000  0.40000000       0.016
  -0.40000000  0.20000000  0.40000000       0.016
  -0.20000000  0.20000000  0.40000000       0.016
   0.00000000  0.40000000  0.40000000       0.016
   0.20000000  0.40000000  0.40000000       0.016
   0.40000000  0.40000000  0.40000000       0.016
  -0.40000000  0.40000000  0.40000000       0.016
  -0.20000000  0.40000000  0.40000000       0.016
   0.00000000 -0.40000000  0.40000000       0.016
   0.20000000 -0.40000000  0.40000000       0.016
   0.40000000 -0.40000000  0.40000000       0.016
  -0.40000000 -0.40000000  0.40000000       0.016
  -0.20000000 -0.40000000  0.40000000       0.016
   0.00000000 -0.20000000  0.40000000       0.016
   0.20000000 -0.20000000  0.40000000       0.016
   0.40000000 -0.20000000  0.40000000       0.016
  -0.40000000 -0.20000000  0.40000000       0.016
  -0.20000000 -0.20000000  0.40000000       0.016
 
 k-points in reciprocal lattice and weights: k-points                                
   0.00000000  0.00000000  0.00000000       0.008
   0.20000000  0.00000000  0.00000000       0.016
   0.40000000  0.00000000  0.00000000       0.016
   0.00000000  0.20000000  0.00000000       0.016
   0.20000000  0.20000000  0.00000000       0.016
   0.40000000  0.20000000  0.00000000       0.016
  -0.40000000  0.20000000  0.00000000       0.016
  -0.20000000  0.20000000  0.00000000       0.016
   0.00000000  0.40000000  0.00000000       0.016
   0.20000000  0.40000000  0.00000000       0.016
   0.40000000  0.40000000  0.00000000       0.016
  -0.40000000  0.40000000  0.00000000       0.016
  -0.20000000  0.40000000  0.00000000       0.016
   0.00000000  0.00000000  0.20000000       0.016
   0.20000000  0.00000000  0.20000000       0.016
   0.40000000  0.00000000  0.20000000       0.016
  -0.40000000  0.00000000  0.20000000       0.016
  -0.20000000  0.00000000  0.20000000       0.016
   0.00000000  0.20000000  0.20000000       0.016
   0.20000000  0.20000000  0.20000000       0.016
   0.40000000  0.20000000  0.20000000       0.016
  -0.40000000  0.20000000  0.20000000       0.016
  -0.20000000  0.20000000  0.20000000       0.016
   0.00000000  0.40000000  0.20000000       0.016
   0.20000000  0.40000000  0.20000000       0.016
   0.40000000  0.40000000  0.20000000       0.016
  -0.40000000  0.40000000  0.20000000       0.016
  -0.20000000  0.40000000  0.20000000       0.016
   0.00000000 -0.40000000  0.20000000       0.016
   0.20000000 -0.40000000  0.20000000       0.016
   0.40000000 -0.40000000  0.20000000       0.016
  -0.40000000 -0.40000000  0.20000000       0.016
  -0.20000000 -0.40000000  0.20000000       0.016
   0.00000000 -0.20000000  0.20000000       0.016
   0.20000000 -0.20000000  0.20000000       0.016
   0.40000000 -0.20000000  0.20000000       0.016
  -0.40000000 -0.20000000  0.20000000       0.016
  -0.20000000 -0.20000000  0.20000000       0.016
   0.00000000  0.00000000  0.40000000       0.016
   0.20000000  0.00000000  0.40000000       0.016
   0.40000000  0.00000000  0.40000000       0.016
  -0.40000000  0.00000000  0.40000000       0.016
  -0.20000000  0.00000000  0.40000000       0.016
   0.00000000  0.20000000  0.40000000       0.016
   0.20000000  0.20000000  0.40000000       0.016
   0.40000000  0.20000000  0.40000000       0.016
  -0.40000000  0.20000000  0.40000000       0.016
  -0.20000000  0.20000000  0.40000000       0.016
   0.00000000  0.40000000  0.40000000       0.016
   0.20000000  0.40000000  0.40000000       0.016
   0.40000000  0.40000000  0.40000000       0.016
  -0.40000000  0.40000000  0.40000000       0.016
  -0.20000000  0.40000000  0.40000000       0.016
   0.00000000 -0.40000000  0.40000000       0.016
   0.20000000 -0.40000000  0.40000000       0.016
   0.40000000 -0.40000000  0.40000000       0.016
  -0.40000000 -0.40000000  0.40000000       0.016
  -0.20000000 -0.40000000  0.40000000       0.016
   0.00000000 -0.20000000  0.40000000       0.016
   0.20000000 -0.20000000  0.40000000       0.016
   0.40000000 -0.20000000  0.40000000       0.016
  -0.40000000 -0.20000000  0.40000000       0.016
  -0.20000000 -0.20000000  0.40000000       0.016
 
 position of ions in fractional coordinates (direct lattice) 
   0.00000000  0.00000000  0.00000000
   0.51000000  0.52000000  0.53000000
   0.50000000  0.00000000  0.00000000
   0.00000000  0.50000000  0.00000000
   0.00000000  0.00000000  0.50000000
 
 position of ions in cartesian coordinates  (Angst):
   0.00000000  0.00000000  0.00000000
   1.97992200  2.01874400  2.05756600
   1.94110000  0.00000000  0.00000000
   0.00000000  1.94110000  0.00000000
   0.00000000  0.00000000  1.94110000
 


--------------------------------------------------------------------------------------------------------


 k-point  1 :   0.0000 0.0000 0.0000  plane waves:    1045
 k-point  2 :   0.2000 0.0000 0.0000  plane waves:    1069
 k-point  3 :   0.4000 0.0000 0.0000  plane waves:    1064
 k-point  4 :   0.0000 0.2000 0.0000  plane waves:    1069
 k-point  5 :   0.2000 0.2000 0.0000  plane waves:    1073
 k-point  6 :   0.4000 0.2000 0.0000  plane waves:    1072
 k-point  7 :  -0.4000 0.2000 0.0000  plane waves:    1072
 k-point  8 :  -0.2000 0.2000 0.0000  plane waves:    1073
 k-point  9 :   0.0000 0.4000 0.0000  plane waves:    1064
 k-point 10 :   0.2000 0.4000 0.0000  plane waves:    1072
 k-point 11 :   0.4000 0.4000 0.0000  plane waves:    1063
 k-point 12 :  -0.4000 0.4000 0.0000  plane waves:    1063
 k-point 13 :  -0.2000 0.4000 0.0000  plane waves:    1072
 k-point 14 :   0.0000 0.0000 0.2000  plane waves:    1069
 k-point 15 :   0.2000 0.0000 0.2000  plane waves:    1073
 k-point 16 :   0.4000 0.0000 0.2000  plane waves:    1072
 k-point 17 :  -0.4000 0.0000 0.2000  plane waves:    1072
 k-point 18 :  -0.2000 0.0000 0.2000  plane waves:    1073
 k-point 19 :   0.0000 0.2000 0.2000  plane waves:    1073
 k-point 20 :   0.2000 0.2000 0.2000  plane waves:    1066
 k-point 21 :   0.4000 0.2000 0.2000  plane waves:    1068
 k-point 22 :  -0.4000 0.2000 0.2000  plane waves:    1068
 k-point 23 :  -0.2000 0.2000 0.2000  plane waves:    1066
 k-point 24 :   0.0000 0.4000 0.2000  plane waves:    1072
 k-point 25 :   0.2000 0.4000 0.2000  plane waves:    1068
 k-point 26 :   0.4000 0.4000 0.2000  plane waves:    1054
 k-point 27 :  -0.4000 0.4000 0.2000  plane waves:    1054
 k-point 28 :  -0.2000 0.4000 0.2000  plane waves:    1068
 k-point 29 :   0.0000-0.4000 0.2000  plane waves:    1072
 k-point 30 :   0.2000-0.4000 0.2000  plane waves:    1068
 k-point 31 :   0.4000-0.4000 0.2000  plane waves:    1054
 k-point 32 :  -0.4000-0.4000 0.2000  plane waves:    1054
 k-point 33 :  -0.2000-0.4000 0.2000  plane waves:    1068
 k-point 34 :   0.0000-0.2000 0.2000  plane waves:    1073
 k-point 35 :   0.2000-0.2000 0.2000  plane waves:    1066
 k-point 36 :   0.4000-0.2000 0.2000  plane waves:    1068
 k-point 37 :  -0.4000-0.2000 0.2000  plane waves:    1068
 k-point 38 :  -0.2000-0.2000 0.2000  plane waves:    1066
 k-point 39 :   0.0000 0.0000 0.4000  plane waves:    1064
 k-point 40 :   0.2000 0.0000 0.4000  plane waves:    1072
 k-point 41 :   0.4000 0.0000 0.4000  plane waves:    1063
 k-point 42 :  -0.4000 0.0000 0.4000  plane waves:    1063
 k-point 43 :  -0.2000 0.0000 0.4000  plane waves:    1072
 k-point 44 :   0.0000 0.2000 0.4000  plane waves:    1072
 k-point 45 :   0.2000 0.2000 0.4000  plane waves:    1068
 k-point 46 :   0.4000 0.2000 0.4000  plane waves:    1054
 k-point 47 :  -0.4000 0.2000 0.4000  plane waves:    1054
 k-point 48 :  -0.2000 0.2000 0.4000  plane waves:    1068
 k-point 49 :   0.0000 0.4000 0.4000  plane waves:    1063
 k-point 50 :   0.2000 0.4000 0.4000  plane waves:    1054
 k-point 51 :   0.4000 0.4000 0.4000  plane waves:    1058
 k-point 52 :  -0.4000 0.4000 0.4000  plane waves:    1058
 k-point 53 :  -0.2000 0.4000 0.4000  plane waves:    1054
 k-point 54 :   0.0000-0.4000 0.4000  plane waves:    1063
 k-point 55 :   0.2000-0.4000 0.4000  plane waves:    1054
 k-point 56 :   0.4000-0.4000 0.4000  plane waves:    1058
 k-point 57 :  -0.4000-0.4000 0.4000  plane waves:    1058
 k-point 58 :  -0.2000-0.4000 0.4000  plane waves:    1054
 k-point 59 :   0.0000-0.2000 0.4000  plane waves:    1072
 k-point 60 :   0.2000-0.2000 0.4000  plane waves:    1068
 k-point 61 :   0.4000-0.2000 0.4000  plane waves:    1054
 k-point 62 :  -0.4000-0.2000 0.4000  plane waves:    1054
 k-point 63 :  -0.2000-0.2000 0.4000  plane waves:    1068

 maximum and minimum number of plane-waves per node :      1073     1045

 maximum number of plane-waves:      1073
 maximum index in each direction: 
   IXMAX=    6   IYMAX=    6   IZMAX=    6
   IXMIN=   -6   IYMIN=   -6   IZMIN=   -6

 WARNING: aliasing errors must be expected set NGX to  26 to avoid them
 WARNING: aliasing errors must be expected set NGY to  26 to avoid them
 WARNING: aliasing errors must be expected set NGZ to  26 to avoid them
 aliasing errors are usually negligible using standard VASP settings
 and one can safely disregard these warnings

 serial   3D FFT for wavefunctions
 parallel 3D FFT for charge:
    minimum data exchange during FFTs selected (reduces bandwidth)


 total amount of memory used by VASP on root node    61338. kBytes
========================================================================

   base      :      30000. kBytes
   nonl-proj :      29425. kBytes
   fftplans  :        145. kBytes
   grid      :        538. kBytes
   one-center:         77. kBytes
   wavefun   :       1153. kBytes
 
     INWAV:  cpu time    0.21: real time    0.21
 Broyden mixing: mesh for mixing (old mesh)
   NGX = 13   NGY = 13   NGZ = 13
  (NGX  = 40   NGY  = 40   NGZ  = 40)
  gives a total of   2197 points

 charge density for first step will be calculated from the start-wavefunctions


--------------------------------------------------------------------------------------------------------


 Maximum index for augmentation-charges          528 (set IRDMAX)


--------------------------------------------------------------------------------------------------------


 initial charge from wavefunction
 First call to EWALD:  gamma=   0.457
 Maximum number of real-space cells 3x 3x 3
 Maximum number of reciprocal cells 3x 3x 3

 FEWALD executed in parallel
    FEWALD:  cpu time    0.00: real time    0.00


----------------------------------------- Iteration    1(   1)  ---------------------------------------


    POTLOK:  cpu time    0.00: real time    0.00
    SETDIJ:  cpu time    0.00: real time    0.00
     EDDAV:  cpu time    0.43: real time    0.43
       DOS:  cpu time    0.00: real time    0.00
    CHARGE:  cpu time    0.01: real time    0.01
    MIXING:  cpu time    0.00: real time    0.00
    --------------------------------------------
      LOOP:  cpu time    0.45: real time    0.45

 eigenvalue-minimisations  :  2838
 total energy-change (2. order) :-0.4267883E+02  (-0.6779457E+01)
 number of electron      35.9999986 magnetization 
 augmentation part       11.1473721 magnetization 

 Broyden mixing:
  rms(total) = 0.84448E+00    rms(broyden)= 0.84447E+00
  rms(prec ) = 0.20006E+01
  weight for this iteration     100.00

 Free energy of the ion-electron system (eV)
  ---------------------------------------------------
  alpha Z        PSCENC =       166.69949767
  Ewald energy   TEWEN  =     -2275.33586813
  -Hartree energ DENC   =      -682.74094953
  -exchange      EXHF   =         0.00000000
  -V(xc)+E(xc)   XCENC  =       137.53729155
  PAW double counting   =      4032.13972131    -4038.42243619
  entropy T*S    EENTRO =         0.00671292
  eigenvalues    EBANDS =      -334.61555113
  atomic energy  EATOM  =      2952.05274943
  ---------------------------------------------------
  free energy    TOTEN  =       -42.67883209 eV

  energy without entropy =      -42.68554501  energy(sigma->0) =      -42.68106973


--------------------------------------------------------------------------------------------------------




----------------------------------------- Iteration    1(   2)  ---------------------------------------


    POTLOK:  cpu time    0.00: real time    0.00
    SETDIJ:  cpu time    0.00: real time    0.00
     EDDAV:  cpu time    0.40: real time    0.40
       DOS:  cpu time    0.00: real time    0.00
    CHARGE:  cpu time    0.01: real time    0.01
    MIXING:  cpu time    0.00: real time    0.00
    --------------------------------------------
      LOOP:  cpu time    0.42: real time    0.42

 eigenvalue-minimisations  :  2882
 total energy-change (2. order) : 0.2412801E+01  (-0.7529784E+00)
 number of electron      35.9999985 magnetization 
 augmentation part       11.1275497 magnetization 

 Broyden mixing:
  rms(total) = 0.45654E+00    rms(broyden)= 0.45654E+00
  rms(prec ) = 0.73873E+00
  weight for this iteration     100.00

 eigenvalues of (default mixing * dielectric matrix)
  average eigenvalue GAMMA=   1.2157
  1.2157

 Free energy of the ion-electron system (eV)
  ---------------------------------------------------
  alpha Z        PSCENC =       166.69949767
  Ewald energy   TEWEN  =     -2275.33586813
  -Hartree energ DENC   =      -683.35962236
  -exchange      EXHF   =         0.00000000
  -V(xc)+E(xc)   XCENC  =       137.52976197
  PAW double counting   =      3884.12774906    -3890.56466183
  entropy T*S    EENTRO =         0.00690591
  eigenvalues    EBANDS =      -331.42254313
  atomic energy  EATOM  =      2952.05274943
  ---------------------------------------------------
  free energy    TOTEN  =       -40.26603140 eV

  energy without entropy =      -40.27293731  energy(sigma->0) =      -40.26833337


--------------------------------------------------------------------------------------------------------




----------------------------------------- Iteration    1(   3)  ---------------------------------------


    POTLOK:  cpu time    0.00: real time    0.00
    SETDIJ:  cpu time    0.00: real time    0.00
     EDDAV:  cpu time    0.61: real time    0.61
       DOS:  cpu time    0.00: real time    0.00
    CHARGE:  cpu time    0.01: real time    0.01
    MIXING:  cpu time    0.00: real time    0.00
    --------------------------------------------
      LOOP:  cpu time    0.63: real time    0.63

 eigenvalue-minimisations  :  4136
 total energy-change (2. order) : 0.2113647E+00  (-0.1734706E+00)
 number of electron      35.9999985 magnetization 
 augmentation part       11.1204460 magnetization 

 Broyden mixing:
  rms(total) = 0.28421E+00    rms(broyden)= 0.28420E+00
  rms(prec ) = 0.29949E+00
  weight for this iteration     100.00

 eigenvalues of (default mixing * dielectric matrix)
  average eigenvalue GAMMA=   1.7656
  1.7656  1.7656

 Free energy of the ion-electron system (eV)
  ---------------------------------------------------
  alpha Z        PSCENC =       166.69949767
  Ewald energy   TEWEN  =     -2275.33586813
  -Hartree energ DENC   =      -684.73229755
  -exchange      EXHF   =         0.00000000
  -V(xc)+E(xc)   XCENC  =       137.60201397
  PAW double counting   =      3671.27416674    -3677.85694922
  entropy T*S    EENTRO =         0.00690361
  eigenvalues    EBANDS =      -329.76488325
  atomic energy  EATOM  =      2952.05274943
  ---------------------------------------------------
  free energy    TOTEN  =       -40.05466672 eV

  energy without entropy =      -40.06157034  energy(sigma->0) =      -40.05696793


--------------------------------------------------------------------------------------------------------




----------------------------------------- Iteration    1(   4)  ---------------------------------------


    POTLOK:  cpu time    0.00: real time    0.00
    SETDIJ:  cpu time    0.00: real time    0.00
     EDDAV:  cpu time    0.47: real time    0.48
       DOS:  cpu time    0.00: real time    0.00
    CHARGE:  cpu time    0.01: real time    0.01
    MIXING:  cpu time    0.00: real time    0.00
    --------------------------------------------
      LOOP:  cpu time    0.50: real time    0.50

 eigenvalue-minimisations  :  3366
 total energy-change (2. order) :-0.4895445E-02  (-0.5321643E-02)
 number of electron      35.9999985 magnetization 
 augmentation part       11.1115509 magnetization 

 Broyden mixing:
  rms(total) = 0.65991E-01    rms(broyden)= 0.65989E-01
  rms(prec ) = 0.95232E-01
  weight for this iteration     100.00

 eigenvalues of (default mixing * dielectric matrix)
  average eigenvalue GAMMA=   1.6393
  2.5888  0.9613  1.3679

 Free energy of the ion-electron system (eV)
  ---------------------------------------------------
  alpha Z        PSCENC =       166.69949767
  Ewald energy   TEWEN  =     -2275.33586813
  -Hartree energ DENC   =      -685.46622561
  -exchange      EXHF   =         0.00000000
  -V(xc)+E(xc)   XCENC  =       137.64200867
  PAW double counting   =      3535.22014907    -3541.80844404
  entropy T*S    EENTRO =         0.00691687
  eigenvalues    EBANDS =      -329.07034611
  atomic energy  EATOM  =      2952.05274943
  ---------------------------------------------------
  free energy    TOTEN  =       -40.05956217 eV

  energy without entropy =      -40.06647904  energy(sigma->0) =      -40.06186779


--------------------------------------------------------------------------------------------------------




----------------------------------------- Iteration    1(   5)  ---------------------------------------


    POTLOK:  cpu time    0.00: real time    0.00
    SETDIJ:  cpu time    0.00: real time    0.00
     EDDAV:  cpu time    0.59: real time    0.59
       DOS:  cpu time    0.00: real time    0.00
    CHARGE:  cpu time    0.01: real time    0.01
    MIXING:  cpu time    0.00: real time    0.00
    --------------------------------------------
      LOOP:  cpu time    0.61: real time    0.61

 eigenvalue-minimisations  :  3938
 total energy-change (2. order) : 0.2548557E-02  (-0.1471443E-02)
 number of electron      35.9999985 magnetization 
 augmentation part       11.1147346 magnetization 

 Broyden mixing:
  rms(total) = 0.97684E-02    rms(broyden)= 0.97578E-02
  rms(prec ) = 0.22145E-01
  weight for this iteration     100.00

 eigenvalues of (default mixing * dielectric matrix)
  average eigenvalue GAMMA=   1.4145
  2.5493  1.2991  1.0949  0.7148

 Free energy of the ion-electron system (eV)
  ---------------------------------------------------
  alpha Z        PSCENC =       166.69949767
  Ewald energy   TEWEN  =     -2275.33586813
  -Hartree energ DENC   =      -685.62505244
  -exchange      EXHF   =         0.00000000
  -V(xc)+E(xc)   XCENC  =       137.65804646
  PAW double counting   =      3500.20362071    -3506.80940111
  entropy T*S    EENTRO =         0.00690961
  eigenvalues    EBANDS =      -328.90751582
  atomic energy  EATOM  =      2952.05274943
  ---------------------------------------------------
  free energy    TOTEN  =       -40.05701361 eV

  energy without entropy =      -40.06392322  energy(sigma->0) =      -40.05931682


--------------------------------------------------------------------------------------------------------




----------------------------------------- Iteration    1(   6)  ---------------------------------------


    POTLOK:  cpu time    0.00: real time    0.00
    SETDIJ:  cpu time    0.00: real time    0.00
     EDDAV:  cpu time    0.59: real time    0.59
       DOS:  cpu time    0.00: real time    0.00
    CHARGE:  cpu time    0.01: real time    0.01
    MIXING:  cpu time    0.00: real time    0.00
    --------------------------------------------
      LOOP:  cpu time    0.61: real time    0.61

 eigenvalue-minimisations  :  4026
 total energy-change (2. order) : 0.1879787E-03  (-0.1923081E-03)
 number of electron      35.9999985 magnetization 
 augmentation part       11.1136663 magnetization 

 Broyden mixing:
  rms(total) = 0.43732E-02    rms(broyden)= 0.43723E-02
  rms(prec ) = 0.63286E-02
  weight for this iteration     100.00

 eigenvalues of (default mixing * dielectric matrix)
  average eigenvalue GAMMA=   1.3786
  2.4544  1.4365  1.4365  0.9147  0.6510

 Free energy of the ion-electron system (eV)
  ---------------------------------------------------
  alpha Z        PSCENC =       166.69949767
  Ewald energy   TEWEN  =     -2275.33586813
  -Hartree energ DENC   =      -685.56514903
  -exchange      EXHF   =         0.00000000
  -V(xc)+E(xc)   XCENC  =       137.65121821
  PAW double counting   =      3499.93342051    -3506.53310021
  entropy T*S    EENTRO =         0.00690840
  eigenvalues    EBANDS =      -328.96650250
  atomic energy  EATOM  =      2952.05274943
  ---------------------------------------------------
  free energy    TOTEN  =       -40.05682563 eV

  energy without entropy =      -40.06373403  energy(sigma->0) =      -40.05912843


--------------------------------------------------------------------------------------------------------




----------------------------------------- Iteration    1(   7)  ---------------------------------------


    POTLOK:  cpu time    0.00: real time    0.00
    SETDIJ:  cpu time    0.00: real time    0.00
     EDDAV:  cpu time    0.33: real time    0.33
       DOS:  cpu time    0.00: real time    0.00
    --------------------------------------------
      LOOP:  cpu time    0.33: real time    0.34

 eigenvalue-minimisations  :  2332
 total energy-change (2. order) :-0.4908584E-05  (-0.9061161E-05)
 number of electron      35.9999985 magnetization 
 augmentation part       11.1136663 magnetization 

 Free energy of the ion-electron system (eV)
  ---------------------------------------------------
  alpha Z        PSCENC =       166.69949767
  Ewald energy   TEWEN  =     -2275.33586813
  -Hartree energ DENC   =      -685.51526445
  -exchange      EXHF   =         0.00000000
  -V(xc)+E(xc)   XCENC  =       137.64833552
  PAW double counting   =      3501.83251291    -3508.42922200
  entropy T*S    EENTRO =         0.00690848
  eigenvalues    EBANDS =      -329.01647997
  atomic energy  EATOM  =      2952.05274943
  ---------------------------------------------------
  free energy    TOTEN  =       -40.05683054 eV

  energy without entropy =      -40.06373902  energy(sigma->0) =      -40.05913337


--------------------------------------------------------------------------------------------------------




 average (electrostatic) potential at core
  the test charge radii are     1.0397  1.2658  0.7215
  (the norm of the test charge is              1.0000)
       1 -53.1530       2 -45.5861       3 -70.0951       4 -70.0973       5 -70.0961
 
 
 
 E-fermi :   3.6817     XC(G=0): -11.0061     alpha+bet :-13.2781


 k-point     1 :       0.0000    0.0000    0.0000
  band No.  band energies     occupation 
      1     -29.0439      2.00000
      2     -29.0430      2.00000
      3     -29.0412      2.00000
      4     -16.5689      2.00000
      5     -16.5616      2.00000
      6     -16.5599      2.00000
      7     -13.8739      2.00000
      8     -12.7867      2.00000
      9     -12.7776      2.00000
     10       0.6379      2.00000
     11       0.6427      2.00000
     12       0.6476      2.00000
     13       2.5393      2.00000
     14       2.5489      2.00000
     15       2.5701      2.00000
     16       3.2804      2.01567
     17       3.2810      2.01583
     18       3.2851      2.01691
     19       5.5564     -0.00000
     20       5.5756     -0.00000
     21       5.5765     -0.00000
     22       8.0464     -0.00000

 k-point     2 :       0.2000    0.0000    0.0000
  band No.  band energies     occupation 
      1     -29.0700      2.00000
      2     -29.0422      2.00000
      3     -29.0402      2.00000
      4     -16.6481      2.00000
      5     -16.5629      2.00000
      6     -16.5572      2.00000
      7     -13.6535      2.00000
      8     -12.7710      2.00000
      9     -12.6786      2.00000
     10       0.2177      2.00000
     11       0.6625      2.00000
     12       0.6722      2.00000
     13       2.0643      2.00000
     14       2.0778      2.00000
     15       2.2241      2.00000
     16       2.2645      2.00000
     17       3.1250      2.00060
     18       3.1292      2.00066
     19       5.6281     -0.00000
     20       6.3335     -0.00000
     21       6.3507     -0.00000
     22       8.0692     -0.00000

 k-point     3 :       0.4000    0.0000    0.0000
  band No.  band energies     occupation 
      1     -29.1122      2.00000
      2     -29.0405      2.00000
      3     -29.0384      2.00000
      4     -16.7759      2.00000
      5     -16.5562      2.00000
      6     -16.5500      2.00000
      7     -13.2979      2.00000
      8     -12.7524      2.00000
      9     -12.4898      2.00000
     10      -0.5616      2.00000
     11       0.8150      2.00000
     12       0.8222      2.00000
     13       1.1454      2.00000
     14       1.3254      2.00000
     15       1.3329      2.00000
     16       1.8832      2.00000
     17       3.0126      2.00002
     18       3.0237      2.00003
     19       5.7232     -0.00000
     20       7.3509     -0.00000
     21       7.3642     -0.00000
     22       8.0807     -0.00000

 k-point     4 :       0.0000    0.2000    0.0000
  band No.  band energies     occupation 
      1     -29.0693      2.00000
      2     -29.0426      2.00000
      3     -29.0405      2.00000
      4     -16.6499      2.00000
      5     -16.5618      2.00000
      6     -16.5561      2.00000
      7     -13.6537      2.00000
      8     -12.7729      2.00000
      9     -12.6768      2.00000
     10       0.2175      2.00000
     11       0.6651      2.00000
     12       0.6702      2.00000
     13       2.0675      2.00000
     14       2.0751      2.00000
     15       2.2240      2.00000
     16       2.2633      2.00000
     17       3.1246      2.00059
     18       3.1267      2.00062
     19       5.6246     -0.00000
     20       6.3388     -0.00000
     21       6.3493     -0.00000
     22       8.0685     -0.00000

 k-point     5 :       0.2000    0.2000    0.0000
  band No.  band energies     occupation 
      1     -29.0691      2.00000
      2     -29.0683      2.00000
      3     -29.0395      2.00000
      4     -16.6549      2.00000
      5     -16.6079      2.00000
      6     -16.5564      2.00000
      7     -13.4672      2.00000
      8     -12.7135      2.00000
      9     -12.6211      2.00000
     10       0.0013      2.00000
     11       0.4116      2.00000
     12       0.6856      2.00000
     13       1.1432      2.00000
     14       1.7975      2.00000
     15       2.1834      2.00000
     16       2.3479      2.00000
     17       2.8005      2.00000
     18       2.8053      2.00000
     19       6.2979     -0.00000
     20       6.4486     -0.00000
     21       6.6588     -0.00000
     22       8.5446     -0.00000

 k-point     6 :       0.4000    0.2000    0.0000
  band No.  band energies     occupation 
      1     -29.1114      2.00000
      2     -29.0668      2.00000
      3     -29.0378      2.00000
      4     -16.7432      2.00000
      5     -16.6040      2.00000
      6     -16.5487      2.00000
      7     -13.1898      2.00000
      8     -12.6636      2.00000
      9     -12.4383      2.00000
     10      -0.5877      2.00000
     11      -0.0700      2.00000
     12       0.5082      2.00000
     13       0.8173      2.00000
     14       1.2257      2.00000
     15       1.6100      2.00000
     16       2.2938      2.00000
     17       2.5791      2.00000
     18       2.8018      2.00000
     19       6.4254     -0.00000
     20       7.3631     -0.00000
     21       7.4054     -0.00000
     22       8.6848     -0.00000

 k-point     7 :      -0.4000    0.2000    0.0000
  band No.  band energies     occupation 
      1     -29.1114      2.00000
      2     -29.0668      2.00000
      3     -29.0378      2.00000
      4     -16.7430      2.00000
      5     -16.6042      2.00000
      6     -16.5487      2.00000
      7     -13.1900      2.00000
      8     -12.6636      2.00000
      9     -12.4385      2.00000
     10      -0.5870      2.00000
     11      -0.0700      2.00000
     12       0.5079      2.00000
     13       0.8160      2.00000
     14       1.2273      2.00000
     15       1.6115      2.00000
     16       2.2943      2.00000
     17       2.5789      2.00000
     18       2.8005      2.00000
     19       6.4252     -0.00000
     20       7.3626     -0.00000
     21       7.4065     -0.00000
     22       8.6848     -0.00000

 k-point     8 :      -0.2000    0.2000    0.0000
  band No.  band energies     occupation 
      1     -29.0692      2.00000
      2     -29.0682      2.00000
      3     -29.0395      2.00000
      4     -16.6541      2.00000
      5     -16.6086      2.00000
      6     -16.5564      2.00000
      7     -13.4673      2.00000
      8     -12.7135      2.00000
      9     -12.6214      2.00000
     10       0.0016      2.00000
     11       0.4129      2.00000
     12       0.6847      2.00000
     13       1.1440      2.00000
     14       1.7988      2.00000
     15       2.1854      2.00000
     16       2.3488      2.00000
     17       2.7968      2.00000
     18       2.8052      2.00000
     19       6.2986     -0.00000
     20       6.4469     -0.00000
     21       6.6612     -0.00000
     22       8.5446     -0.00000

 k-point     9 :       0.0000    0.4000    0.0000
  band No.  band energies     occupation 
      1     -29.1115      2.00000
      2     -29.0408      2.00000
      3     -29.0387      2.00000
      4     -16.7769      2.00000
      5     -16.5547      2.00000
      6     -16.5499      2.00000
      7     -13.2984      2.00000
      8     -12.7534      2.00000
      9     -12.4888      2.00000
     10      -0.5608      2.00000
     11       0.8149      2.00000
     12       0.8197      2.00000
     13       1.1460      2.00000
     14       1.3291      2.00000
     15       1.3335      2.00000
     16       1.8772      2.00000
     17       3.0130      2.00002
     18       3.0187      2.00003
     19       5.7208     -0.00000
     20       7.3551     -0.00000
     21       7.3622     -0.00000
     22       8.0802     -0.00000

 k-point    10 :       0.2000    0.4000    0.0000
  band No.  band energies     occupation 
      1     -29.1107      2.00000
      2     -29.0674      2.00000
      3     -29.0378      2.00000
      4     -16.7440      2.00000
      5     -16.6029      2.00000
      6     -16.5488      2.00000
      7     -13.1901      2.00000
      8     -12.6644      2.00000
      9     -12.4375      2.00000
     10      -0.5867      2.00000
     11      -0.0692      2.00000
     12       0.5049      2.00000
     13       0.8166      2.00000
     14       1.2277      2.00000
     15       1.6116      2.00000
     16       2.2911      2.00000
     17       2.5774      2.00000
     18       2.8001      2.00000
     19       6.4231     -0.00000
     20       7.3653     -0.00000
     21       7.4059     -0.00000
     22       8.6847     -0.00000

 k-point    11 :       0.4000    0.4000    0.0000
  band No.  band energies     occupation 
      1     -29.1101      2.00000
      2     -29.1092      2.00000
      3     -29.0362      2.00000
      4     -16.6965      2.00000
      5     -16.6785      2.00000
      6     -16.5412      2.00000
      7     -13.1188      2.00000
      8     -12.3982      2.00000
      9     -12.3420      2.00000
     10      -0.9116      2.00000
     11      -0.6267      2.00000
     12      -0.4133      2.00000
     13       0.8448      2.00000
     14       0.9985      2.00000
     15       1.7697      2.00000
     16       1.8486      2.00000
     17       2.1249      2.00000
     18       3.4625      2.06486
     19       7.3505     -0.00000
     20       7.3955     -0.00000
     21       7.7546     -0.00000
     22       9.0021     -0.00000

 k-point    12 :      -0.4000    0.4000    0.0000
  band No.  band energies     occupation 
      1     -29.1101      2.00000
      2     -29.1092      2.00000
      3     -29.0362      2.00000
      4     -16.6958      2.00000
      5     -16.6792      2.00000
      6     -16.5412      2.00000
      7     -13.1189      2.00000
      8     -12.3977      2.00000
      9     -12.3425      2.00000
     10      -0.9102      2.00000
     11      -0.6282      2.00000
     12      -0.4131      2.00000
     13       0.8422      2.00000
     14       1.0014      2.00000
     15       1.7699      2.00000
     16       1.8498      2.00000
     17       2.1247      2.00000
     18       3.4618      2.06518
     19       7.3502     -0.00000
     20       7.3955     -0.00000
     21       7.7550     -0.00000
     22       9.0022     -0.00000

 k-point    13 :      -0.2000    0.4000    0.0000
  band No.  band energies     occupation 
      1     -29.1107      2.00000
      2     -29.0674      2.00000
      3     -29.0378      2.00000
      4     -16.7438      2.00000
      5     -16.6030      2.00000
      6     -16.5488      2.00000
      7     -13.1903      2.00000
      8     -12.6644      2.00000
      9     -12.4377      2.00000
     10      -0.5860      2.00000
     11      -0.0692      2.00000
     12       0.5046      2.00000
     13       0.8153      2.00000
     14       1.2293      2.00000
     15       1.6131      2.00000
     16       2.2916      2.00000
     17       2.5773      2.00000
     18       2.7987      2.00000
     19       6.4229     -0.00000
     20       7.3647     -0.00000
     21       7.4071     -0.00000
     22       8.6847     -0.00000

 k-point    14 :       0.0000    0.0000    0.2000
  band No.  band energies     occupation 
      1     -29.0680      2.00000
      2     -29.0426      2.00000
      3     -29.0417      2.00000
      4     -16.6528      2.00000
      5     -16.5585      2.00000
      6     -16.5561      2.00000
      7     -13.6544      2.00000
      8     -12.7774      2.00000
      9     -12.6721      2.00000
     10       0.2182      2.00000
     11       0.6663      2.00000
     12       0.6696      2.00000
     13       2.0711      2.00000
     14       2.0754      2.00000
     15       2.2250      2.00000
     16       2.2584      2.00000
     17       3.1212      2.00054
     18       3.1227      2.00056
     19       5.6187     -0.00000
     20       6.3447     -0.00000
     21       6.3507     -0.00000
     22       8.0671     -0.00000

 k-point    15 :       0.2000    0.0000    0.2000
  band No.  band energies     occupation 
      1     -29.0691      2.00000
      2     -29.0670      2.00000
      3     -29.0408      2.00000
      4     -16.6567      2.00000
      5     -16.6083      2.00000
      6     -16.5538      2.00000
      7     -13.4678      2.00000
      8     -12.7171      2.00000
      9     -12.6172      2.00000
     10       0.0037      2.00000
     11       0.4110      2.00000
     12       0.6861      2.00000
     13       1.1429      2.00000
     14       1.7942      2.00000
     15       2.1771      2.00000
     16       2.3439      2.00000
     17       2.8026      2.00000
     18       2.8108      2.00000
     19       6.2949     -0.00000
     20       6.4489     -0.00000
     21       6.6615     -0.00000
     22       8.5437     -0.00000

 k-point    16 :       0.4000    0.0000    0.2000
  band No.  band energies     occupation 
      1     -29.1113      2.00000
      2     -29.0655      2.00000
      3     -29.0391      2.00000
      4     -16.7435      2.00000
      5     -16.6054      2.00000
      6     -16.5469      2.00000
      7     -13.1911      2.00000
      8     -12.6627      2.00000
      9     -12.4383      2.00000
     10      -0.5871      2.00000
     11      -0.0681      2.00000
     12       0.5141      2.00000
     13       0.8132      2.00000
     14       1.2196      2.00000
     15       1.6017      2.00000
     16       2.2922      2.00000
     17       2.5779      2.00000
     18       2.8136      2.00000
     19       6.4264     -0.00000
     20       7.3611     -0.00000
     21       7.4070     -0.00000
     22       8.6844     -0.00000

 k-point    17 :      -0.4000    0.0000    0.2000
  band No.  band energies     occupation 
      1     -29.1114      2.00000
      2     -29.0655      2.00000
      3     -29.0391      2.00000
      4     -16.7432      2.00000
      5     -16.6055      2.00000
      6     -16.5469      2.00000
      7     -13.1912      2.00000
      8     -12.6626      2.00000
      9     -12.4386      2.00000
     10      -0.5861      2.00000
     11      -0.0680      2.00000
     12       0.5137      2.00000
     13       0.8112      2.00000
     14       1.2220      2.00000
     15       1.6040      2.00000
     16       2.2930      2.00000
     17       2.5777      2.00000
     18       2.8117      2.00000
     19       6.4261     -0.00000
     20       7.3605     -0.00000
     21       7.4085     -0.00000
     22       8.6844     -0.00000

 k-point    18 :      -0.2000    0.0000    0.2000
  band No.  band energies     occupation 
      1     -29.0691      2.00000
      2     -29.0669      2.00000
      3     -29.0408      2.00000
      4     -16.6555      2.00000
      5     -16.6093      2.00000
      6     -16.5538      2.00000
      7     -13.4680      2.00000
      8     -12.7171      2.00000
      9     -12.6177      2.00000
     10       0.0042      2.00000
     11       0.4130      2.00000
     12       0.6849      2.00000
     13       1.1441      2.00000
     14       1.7960      2.00000
     15       2.1801      2.00000
     16       2.3452      2.00000
     17       2.8022      2.00000
     18       2.8055      2.00000
     19       6.2959     -0.00000
     20       6.4466     -0.00000
     21       6.6649     -0.00000
     22       8.5436     -0.00000

 k-point    19 :       0.0000    0.2000    0.2000
  band No.  band energies     occupation 
      1     -29.0687      2.00000
      2     -29.0667      2.00000
      3     -29.0415      2.00000
      4     -16.6583      2.00000
      5     -16.6082      2.00000
      6     -16.5523      2.00000
      7     -13.4678      2.00000
      8     -12.7186      2.00000
      9     -12.6156      2.00000
     10       0.0046      2.00000
     11       0.4096      2.00000
     12       0.6871      2.00000
     13       1.1418      2.00000
     14       1.7908      2.00000
     15       2.1731      2.00000
     16       2.3421      2.00000
     17       2.8020      2.00000
     18       2.8182      2.00000
     19       6.2929     -0.00000
     20       6.4499     -0.00000
     21       6.6615     -0.00000
     22       8.5432     -0.00000

 k-point    20 :       0.2000    0.2000    0.2000
  band No.  band energies     occupation 
      1     -29.0684      2.00000
      2     -29.0673      2.00000
      3     -29.0655      2.00000
      4     -16.6565      2.00000
      5     -16.5985      2.00000
      6     -16.5980      2.00000
      7     -13.2846      2.00000
      8     -12.6243      2.00000
      9     -12.6193      2.00000
     10      -0.1645      2.00000
     11       0.3775      2.00000
     12       0.3806      2.00000
     13       1.0752      2.00000
     14       1.0774      2.00000
     15       1.4651      2.00000
     16       2.6656      2.00000
     17       2.6731      2.00000
     18       2.9333      2.00000
     19       6.6472     -0.00000
     20       6.7520     -0.00000
     21       6.7574     -0.00000
     22       9.5458      0.00000

 k-point    21 :       0.4000    0.2000    0.2000
  band No.  band energies     occupation 
      1     -29.1104      2.00000
      2     -29.0662      2.00000
      3     -29.0637      2.00000
      4     -16.7165      2.00000
      5     -16.6069      2.00000
      6     -16.5814      2.00000
      7     -13.0189      2.00000
      8     -12.6273      2.00000
      9     -12.4166      2.00000
     10      -0.6055      2.00000
     11      -0.1321      2.00000
     12       0.1807      2.00000
     13       0.3247      2.00000
     14       0.6859      2.00000
     15       1.3813      2.00000
     16       2.5572      2.00000
     17       2.6559      2.00000
     18       2.9729      2.00001
     19       6.8111     -0.00000
     20       7.4373     -0.00000
     21       7.4789     -0.00000
     22       9.6422      0.00000

 k-point    22 :      -0.4000    0.2000    0.2000
  band No.  band energies     occupation 
      1     -29.1104      2.00000
      2     -29.0662      2.00000
      3     -29.0637      2.00000
      4     -16.7160      2.00000
      5     -16.6072      2.00000
      6     -16.5813      2.00000
      7     -13.0194      2.00000
      8     -12.6275      2.00000
      9     -12.4164      2.00000
     10      -0.6047      2.00000
     11      -0.1358      2.00000
     12       0.1841      2.00000
     13       0.3279      2.00000
     14       0.6846      2.00000
     15       1.3823      2.00000
     16       2.5599      2.00000
     17       2.6587      2.00000
     18       2.9674      2.00001
     19       6.8113     -0.00000
     20       7.4355     -0.00000
     21       7.4815     -0.00000
     22       9.6421      0.00000

 k-point    23 :      -0.2000    0.2000    0.2000
  band No.  band energies     occupation 
      1     -29.0683      2.00000
      2     -29.0675      2.00000
      3     -29.0655      2.00000
      4     -16.6551      2.00000
      5     -16.5996      2.00000
      6     -16.5979      2.00000
      7     -13.2852      2.00000
      8     -12.6244      2.00000
      9     -12.6195      2.00000
     10      -0.1687      2.00000
     11       0.3809      2.00000
     12       0.3860      2.00000
     13       1.0758      2.00000
     14       1.0799      2.00000
     15       1.4647      2.00000
     16       2.6713      2.00000
     17       2.6783      2.00000
     18       2.9203      2.00000
     19       6.6459     -0.00000
     20       6.7498     -0.00000
     21       6.7633     -0.00000
     22       9.5297      0.00000

 k-point    24 :       0.0000    0.4000    0.2000
  band No.  band energies     occupation 
      1     -29.1107      2.00000
      2     -29.0654      2.00000
      3     -29.0398      2.00000
      4     -16.7445      2.00000
      5     -16.6049      2.00000
      6     -16.5459      2.00000
      7     -13.1911      2.00000
      8     -12.6639      2.00000
      9     -12.4375      2.00000
     10      -0.5862      2.00000
     11      -0.0667      2.00000
     12       0.5138      2.00000
     13       0.8108      2.00000
     14       1.2168      2.00000
     15       1.5990      2.00000
     16       2.2889      2.00000
     17       2.5764      2.00000
     18       2.8189      2.00000
     19       6.4245     -0.00000
     20       7.3622     -0.00000
     21       7.4079     -0.00000
     22       8.6841     -0.00000

 k-point    25 :       0.2000    0.4000    0.2000
  band No.  band energies     occupation 
      1     -29.1097      2.00000
      2     -29.0665      2.00000
      3     -29.0641      2.00000
      4     -16.7174      2.00000
      5     -16.6049      2.00000
      6     -16.5821      2.00000
      7     -13.0197      2.00000
      8     -12.6271      2.00000
      9     -12.4164      2.00000
     10      -0.6045      2.00000
     11      -0.1315      2.00000
     12       0.1835      2.00000
     13       0.3222      2.00000
     14       0.6839      2.00000
     15       1.3781      2.00000
     16       2.5621      2.00000
     17       2.6538      2.00000
     18       2.9716      2.00001
     19       6.8083     -0.00000
     20       7.4424     -0.00000
     21       7.4762     -0.00000
     22       9.6411      0.00000

 k-point    26 :       0.4000    0.4000    0.2000
  band No.  band energies     occupation 
      1     -29.1089      2.00000
      2     -29.1079      2.00000
      3     -29.0625      2.00000
      4     -16.6783      2.00000
      5     -16.6618      2.00000
      6     -16.5774      2.00000
      7     -12.8816      2.00000
      8     -12.4138      2.00000
      9     -12.3676      2.00000
     10      -0.8023      2.00000
     11      -0.5901      2.00000
     12      -0.4078      2.00000
     13       0.1114      2.00000
     14       0.1979      2.00000
     15       0.9538      2.00000
     16       2.7068      2.00000
     17       2.7471      2.00000
     18       3.4951      2.03330
     19       7.5208     -0.00000
     20       7.5567     -0.00000
     21       7.8292     -0.00000
     22       9.7877      0.00000

 k-point    27 :      -0.4000    0.4000    0.2000
  band No.  band energies     occupation 
      1     -29.1088      2.00000
      2     -29.1080      2.00000
      3     -29.0625      2.00000
      4     -16.6773      2.00000
      5     -16.6625      2.00000
      6     -16.5775      2.00000
      7     -12.8826      2.00000
      8     -12.4136      2.00000
      9     -12.3673      2.00000
[...]
     17       3.3952      2.06880
     18       3.5282      1.71887
     19       7.9430     -0.00000
     20       8.0386     -0.00000
     21       8.0611     -0.00000
     22       9.5931      0.00000

 k-point    53 :      -0.2000    0.4000    0.4000
  band No.  band energies     occupation 
      1     -29.0332      2.00000
      2     -29.0214      2.00000
      3     -28.9675      2.00000
      4     -16.6496      2.00000
      5     -16.6187      2.00000
      6     -16.5328      2.00000
      7     -12.8761      2.00000
      8     -12.4384      2.00000
      9     -12.3883      2.00000
     10      -0.8045      2.00000
     11      -0.6094      2.00000
     12      -0.3843      2.00000
     13       0.0281      2.00000
     14       0.1881      2.00000
     15       1.0573      2.00000
     16       2.6793      2.00000
     17       2.7082      2.00000
     18       3.4467      2.01881
     19       7.5529     -0.00000
     20       7.6715     -0.00000
     21       7.9056     -0.00000
     22       9.7007      0.00000

 k-point    54 :       0.0000   -0.4000    0.4000
  band No.  band energies     occupation 
      1     -29.0346      2.00000
      2     -29.0226      2.00000
      3     -28.9411      2.00000
      4     -16.6660      2.00000
      5     -16.6393      2.00000
      6     -16.4925      2.00000
      7     -13.1043      2.00000
      8     -12.4259      2.00000
      9     -12.3653      2.00000
     10      -0.9562      2.00000
     11      -0.6656      2.00000
     12      -0.2980      2.00000
     13       0.7439      2.00000
     14       0.9443      2.00000
     15       1.7669      2.00000
     16       1.8326      2.00000
     17       2.1389      2.00000
     18       3.4239      2.05080
     19       7.4380     -0.00000
     20       7.5283     -0.00000
     21       7.8316     -0.00000
     22       9.0970      0.00000

 k-point    55 :       0.2000   -0.4000    0.4000
  band No.  band energies     occupation 
      1     -29.0333      2.00000
      2     -29.0213      2.00000
      3     -28.9675      2.00000
      4     -16.6478      2.00000
      5     -16.6210      2.00000
      6     -16.5326      2.00000
      7     -12.8756      2.00000
      8     -12.4379      2.00000
      9     -12.3891      2.00000
     10      -0.8460      2.00000
     11      -0.6461      2.00000
     12      -0.2796      2.00000
     13       0.0481      2.00000
     14       0.1689      2.00000
     15       1.0358      2.00000
     16       2.6761      2.00000
     17       2.7001      2.00000
     18       3.4433      2.02463
     19       7.5671     -0.00000
     20       7.6617     -0.00000
     21       7.9103     -0.00000
     22       9.7081      0.00000

 k-point    56 :       0.4000   -0.4000    0.4000
  band No.  band energies     occupation 
      1     -29.0312      2.00000
      2     -29.0193      2.00000
      3     -29.0096      2.00000
      4     -16.6202      2.00000
      5     -16.5959      2.00000
      6     -16.5890      2.00000
      7     -12.5223      2.00000
      8     -12.4282      2.00000
      9     -12.4146      2.00000
     10      -0.7857      2.00000
     11      -0.6051      2.00000
     12      -0.5049      2.00000
     13      -0.4733      2.00000
     14      -0.2604      2.00000
     15      -0.1790      2.00000
     16       3.3832      2.07081
     17       3.4054      2.06478
     18       3.5098      1.81494
     19       7.9463     -0.00000
     20       8.0363     -0.00000
     21       8.0594     -0.00000
     22       9.5573      0.00000

 k-point    57 :      -0.4000   -0.4000    0.4000
  band No.  band energies     occupation 
      1     -29.0313      2.00000
      2     -29.0192      2.00000
      3     -29.0097      2.00000
      4     -16.6201      2.00000
      5     -16.5954      2.00000
      6     -16.5895      2.00000
      7     -12.5241      2.00000
      8     -12.4230      2.00000
      9     -12.4183      2.00000
     10      -0.7868      2.00000
     11      -0.6135      2.00000
     12      -0.5196      2.00000
     13      -0.4600      2.00000
     14      -0.2515      2.00000
     15      -0.1759      2.00000
     16       3.3909      2.06982
     17       3.4059      2.06452
     18       3.5035      1.84396
     19       7.9483     -0.00000
     20       8.0360     -0.00000
     21       8.0573     -0.00000
     22       9.5464      0.00000

 k-point    58 :      -0.2000   -0.4000    0.4000
  band No.  band energies     occupation 
      1     -29.0333      2.00000
      2     -29.0213      2.00000
      3     -28.9675      2.00000
      4     -16.6477      2.00000
      5     -16.6208      2.00000
      6     -16.5326      2.00000
      7     -12.8761      2.00000
      8     -12.4373      2.00000
      9     -12.3895      2.00000
     10      -0.8468      2.00000
     11      -0.6482      2.00000
     12      -0.2816      2.00000
     13       0.0435      2.00000
     14       0.1739      2.00000
     15       1.0423      2.00000
     16       2.6794      2.00000
     17       2.7018      2.00000
     18       3.4419      2.02699
     19       7.5699     -0.00000
     20       7.6553     -0.00000
     21       7.9103     -0.00000
     22       9.7023      0.00000

 k-point    59 :       0.0000   -0.2000    0.4000
  band No.  band energies     occupation 
      1     -29.0357      2.00000
      2     -28.9801      2.00000
      3     -28.9428      2.00000
      4     -16.7136      2.00000
      5     -16.5628      2.00000
      6     -16.4999      2.00000
      7     -13.1811      2.00000
      8     -12.6756      2.00000
      9     -12.4608      2.00000
     10      -0.6453      2.00000
     11      -0.1266      2.00000
     12       0.5980      2.00000
     13       0.7365      2.00000
     14       1.1780      2.00000
     15       1.6098      2.00000
     16       2.2215      2.00000
     17       2.5558      2.00000
     18       2.7435      2.00000
     19       6.5494     -0.00000
     20       7.4722     -0.00000
     21       7.5361     -0.00000
     22       8.8294     -0.00000

 k-point    60 :       0.2000   -0.2000    0.4000
  band No.  band energies     occupation 
      1     -29.0347      2.00000
      2     -28.9792      2.00000
      3     -28.9691      2.00000
      4     -16.6857      2.00000
      5     -16.5605      2.00000
      6     -16.5403      2.00000
      7     -13.0202      2.00000
      8     -12.6322      2.00000
      9     -12.4417      2.00000
     10      -0.6431      2.00000
     11      -0.2012      2.00000
     12       0.1253      2.00000
     13       0.3478      2.00000
     14       0.7060      2.00000
     15       1.4308      2.00000
     16       2.5437      2.00000
     17       2.6563      2.00000
     18       2.8743      2.00000
     19       6.8607     -0.00000
     20       7.5511     -0.00000
     21       7.5778     -0.00000
     22       9.7355      0.00000

 k-point    61 :       0.4000   -0.2000    0.4000
  band No.  band energies     occupation 
      1     -29.0331      2.00000
      2     -29.0120      2.00000
      3     -28.9770      2.00000
      4     -16.6461      2.00000
      5     -16.6215      2.00000
      6     -16.5339      2.00000
      7     -12.8912      2.00000
      8     -12.4325      2.00000
      9     -12.3812      2.00000
     10      -0.8031      2.00000
     11      -0.6193      2.00000
     12      -0.3717      2.00000
     13       0.0325      2.00000
     14       0.2049      2.00000
     15       1.0552      2.00000
     16       2.6912      2.00000
     17       2.7066      2.00000
     18       3.4413      2.02799
     19       7.5448     -0.00000
     20       7.6645     -0.00000
     21       7.9053     -0.00000
     22       9.6900      0.00000

 k-point    62 :      -0.4000   -0.2000    0.4000
  band No.  band energies     occupation 
      1     -29.0331      2.00000
      2     -29.0119      2.00000
      3     -28.9770      2.00000
      4     -16.6451      2.00000
      5     -16.6229      2.00000
      6     -16.5337      2.00000
      7     -12.8907      2.00000
      8     -12.4321      2.00000
      9     -12.3817      2.00000
     10      -0.8284      2.00000
     11      -0.6408      2.00000
     12      -0.3055      2.00000
     13       0.0468      2.00000
     14       0.1911      2.00000
     15       1.0384      2.00000
     16       2.6812      2.00000
     17       2.7051      2.00000
     18       3.4406      2.02913
     19       7.5655     -0.00000
     20       7.6474     -0.00000
     21       7.9093     -0.00000
     22       9.7064      0.00000

 k-point    63 :      -0.2000   -0.2000    0.4000
  band No.  band energies     occupation 
      1     -29.0347      2.00000
      2     -28.9790      2.00000
      3     -28.9693      2.00000
      4     -16.6856      2.00000
      5     -16.5621      2.00000
      6     -16.5391      2.00000
      7     -13.0184      2.00000
      8     -12.6344      2.00000
      9     -12.4407      2.00000
     10      -0.6632      2.00000
     11      -0.1923      2.00000
     12       0.0961      2.00000
     13       0.3980      2.00000
     14       0.7564      2.00000
     15       1.3898      2.00000
     16       2.5466      2.00000
     17       2.6096      2.00000
     18       2.8749      2.00000
     19       6.9040     -0.00000
     20       7.5138     -0.00000
     21       7.5993     -0.00000
     22       9.7376      0.00000


--------------------------------------------------------------------------------------------------------


 soft charge-density along one line, spin component           1
         0         1         2         3         4         5         6         7         8         9
 total charge-density along one line
 
 pseudopotential strength for first ion, spin component:           1
-30.163  -0.005  -0.002   7.057   0.003   0.001   0.001   0.002
 -0.005 -30.160  -0.003   0.003   7.055   0.002  -0.000   0.002
 -0.002  -0.003 -30.165   0.001   0.002   7.058   0.002  -0.000
  7.057   0.003   0.001   3.778  -0.001  -0.000   0.001   0.002
  0.003   7.055   0.002  -0.001   3.779  -0.001   0.000   0.002
  0.001   0.002   7.058  -0.000  -0.001   3.777   0.002   0.000
  0.001  -0.000   0.002   0.001   0.000   0.002  -3.626  -0.002
  0.002   0.002  -0.000   0.002   0.002   0.000  -0.002  -3.623
  0.005  -0.015   0.003  -0.003   0.009  -0.002   0.001  -0.001
 -0.000   0.001   0.002   0.000   0.001   0.003  -0.003  -0.001
  0.009  -0.000  -0.005  -0.006   0.000   0.003  -0.000   0.002
  0.001  -0.000   0.002   0.001   0.000   0.002  -3.799  -0.002
  0.002   0.002  -0.000   0.003   0.002   0.000  -0.002  -3.795
  0.007  -0.018   0.004  -0.004   0.011  -0.002   0.001  -0.001
 -0.000   0.001   0.002   0.000   0.001   0.003  -0.003  -0.001
  0.011  -0.000  -0.006  -0.007   0.000   0.004  -0.000   0.002
  0.004   0.005   0.002  -0.001  -0.002  -0.001   0.001   0.001
  0.012   0.016   0.007  -0.003  -0.005  -0.002   0.001   0.003
 total augmentation occupancy for first ion, spin component:           1
  1.976  -0.000  -0.000  -0.065  -0.000  -0.000  -0.003  -0.009  -0.027   0.000  -0.047   0.003   0.008   0.024  -0.000   0.040
 -0.000   1.976  -0.000  -0.000  -0.064  -0.000   0.000  -0.007   0.073  -0.004   0.000  -0.000   0.006  -0.063   0.003  -0.000
 -0.000  -0.000   1.976  -0.000  -0.000  -0.065  -0.006   0.000  -0.016  -0.008   0.028   0.005  -0.000   0.014   0.007  -0.024
 -0.065  -0.000  -0.000   0.340  -0.004  -0.002  -0.031  -0.067  -0.198   0.002  -0.340   0.022   0.047   0.138  -0.001   0.237
 -0.000  -0.064  -0.000  -0.004   0.345  -0.003   0.002  -0.054   0.521  -0.033   0.001  -0.001   0.038  -0.363   0.023  -0.001
 -0.000  -0.000  -0.065  -0.002  -0.003   0.336  -0.050   0.002  -0.117  -0.065   0.202   0.035  -0.001   0.082   0.045  -0.141
 -0.003   0.000  -0.006  -0.031   0.002  -0.050   3.843  -0.005   0.122  -0.011   0.001  -2.404   0.003  -0.088   0.005  -0.001
 -0.009  -0.007   0.000  -0.067  -0.054   0.002  -0.005   4.041  -0.138  -0.003   0.231   0.003  -2.531   0.099   0.001  -0.167
 -0.027   0.073  -0.016  -0.198   0.521  -0.117   0.122  -0.138  14.041  -0.084   0.115  -0.088   0.100  -9.783   0.061  -0.085
  0.000  -0.004  -0.008   0.002  -0.033  -0.065  -0.011  -0.003  -0.084   3.946  -0.137   0.005   0.001   0.060  -2.470   0.099
 -0.047   0.000   0.028  -0.340   0.001   0.202   0.001   0.231   0.115  -0.137  13.600  -0.001  -0.168  -0.085   0.099  -9.456
  0.003  -0.000   0.005   0.022  -0.001   0.035  -2.404   0.003  -0.088   0.005  -0.001   1.511  -0.001   0.064  -0.002   0.001
  0.008   0.006  -0.000   0.047   0.038  -0.001   0.003  -2.531   0.100   0.001  -0.168  -0.001   1.593  -0.073  -0.000   0.122
  0.024  -0.063   0.014   0.138  -0.363   0.082  -0.088   0.099  -9.783   0.060  -0.085   0.064  -0.073   6.888  -0.044   0.064
 -0.000   0.003   0.007  -0.001   0.023   0.045   0.005   0.001   0.061  -2.470   0.099  -0.002  -0.000  -0.044   1.554  -0.072
  0.040  -0.000  -0.024   0.237  -0.001  -0.141  -0.001  -0.167  -0.085   0.099  -9.456   0.001   0.122   0.064  -0.072   6.644
  0.004   0.005   0.003   0.071   0.094   0.043  -0.048  -0.107   0.089  -0.064  -0.048   0.033   0.073  -0.064   0.044   0.034
 -0.001  -0.001  -0.000  -0.001  -0.001  -0.001   0.002   0.004  -0.000   0.002   0.000  -0.001  -0.003   0.001  -0.002  -0.000


------------------------ aborting loop because EDIFF is reached ----------------------------------------


    CHARGE:  cpu time    0.01: real time    0.01
    FORLOC:  cpu time    0.00: real time    0.00
    FORNL :  cpu time    0.05: real time    0.05
    STRESS:  cpu time    0.62: real time    0.62
    FORCOR:  cpu time    0.00: real time    0.00
    FORHAR:  cpu time    0.00: real time    0.00
    MIXING:  cpu time    0.00: real time    0.00
    OFIELD:  cpu time    0.00: real time    0.00

  FORCE on cell =-STRESS in cart. coord.  units (eV):
  Direction    XX          YY          ZZ          XY          YZ          ZX
  --------------------------------------------------------------------------------------
  Alpha Z   166.69950   166.69950   166.69950
  Ewald    -756.50465  -756.56803  -758.20366    -1.96398    -3.59544    -2.39220
  Hartree   231.36026   230.35018   228.20463    -0.93497    -1.74522    -1.14662
  E(xc)    -170.31730  -170.31684  -170.31800    -0.00357    -0.00721    -0.00450
  Local     -38.47022   -37.40072   -33.58227     2.89865     5.31564     3.53098
  n-local   -88.11767   -88.12373   -88.14394    -0.02638    -0.02710    -0.02539
  augment   132.86157   132.88612   132.89977    -0.01196    -0.02191    -0.01450
  Kinetic   521.29318   521.59252   521.91251     0.11443     0.30271     0.16410
  Fock        0.00000     0.00000     0.00000     0.00000     0.00000     0.00000
  -------------------------------------------------------------------------------------
  Total      -1.19533    -0.88101    -0.53146     0.07222     0.22147     0.11187
  in kB     -32.73150   -24.12448   -14.55294     1.97756     6.06443     3.06338
  external pressure =      -23.80 kB  Pullay stress =        0.00 kB


 VOLUME and BASIS-vectors are now :
 -----------------------------------------------------------------------------
  energy-cutoff  :      400.00
  volume of cell :       58.51
      direct lattice vectors                 reciprocal lattice vectors
     3.882200000  0.000000000  0.000000000     0.257585905  0.000000000  0.000000000
     0.000000000  3.882200000  0.000000000     0.000000000  0.257585905  0.000000000
     0.000000000  0.000000000  3.882200000     0.000000000  0.000000000  0.257585905

  length of vectors
     3.882200000  3.882200000  3.882200000     0.257585905  0.257585905  0.257585905


 FORCES acting on ions
    electron-ion (+dipol)            ewald-force                    non-local-force                 convergence-correction
 -----------------------------------------------------------------------------------------------
   0.544E+01 0.821E+01 0.992E+01   -.543E+01 -.821E+01 -.996E+01   0.173E-01 0.303E-01 0.551E-01   -.126E-01 -.248E-01 -.127E-01
   0.135E+02 0.256E+02 0.367E+02   -.133E+02 -.251E+02 -.361E+02   -.229E+00 -.421E+00 -.589E+00   -.111E-02 -.195E-02 -.829E-03
   -.160E+02 -.206E+01 -.363E+01   0.181E+02 0.230E+01 0.404E+01   -.189E+01 -.419E+00 -.661E+00   -.728E-02 0.539E-02 0.255E-02
   -.387E+00 -.262E+02 -.313E+01   0.450E+00 0.297E+02 0.349E+01   -.165E+00 -.311E+01 -.626E+00   0.245E-02 -.140E-01 0.259E-02
   -.118E+00 -.122E+01 -.339E+02   0.155E+00 0.138E+01 0.385E+02   -.147E+00 -.361E+00 -.408E+01   0.240E-02 0.539E-02 -.719E-02
 -----------------------------------------------------------------------------------------------
   0.243E+01 0.431E+01 0.591E+01   0.128E-14 -.178E-14 0.000E+00   -.241E+01 -.429E+01 -.590E+01   -.161E-01 -.300E-01 -.156E-01
 
 
 POSITION                                       TOTAL-FORCE (eV/Angst)
 -----------------------------------------------------------------------------------
      0.04405      0.07332      0.09604         0.009639      0.006108     -0.005723
      2.01349      2.07513      2.13158         0.010375      0.008667      0.012000
      1.94110      0.00000      0.00000         0.188074     -0.171439     -0.249113
      0.00000      1.94110      0.00000        -0.100075      0.352428     -0.263154
      0.00000      0.00000      1.94110        -0.108013     -0.195764      0.505989
 -----------------------------------------------------------------------------------
    total drift:                                0.002061     -0.005097     -0.000551


--------------------------------------------------------------------------------------------------------



  FREE ENERGIE OF THE ION-ELECTRON SYSTEM (eV)
  ---------------------------------------------------
  free  energy   TOTEN  =       -40.08399243 eV

  energy  without entropy=      -40.09070873  energy(sigma->0) =      -40.08623120
 
 d Force = 0.1445290E-04[-0.568E-05, 0.346E-04]  d Energy = 0.1540100E-04-0.948E-06
 d Force = 0.5887316E-02[ 0.528E-02, 0.649E-02]  d Ewald  = 0.5887414E-02-0.982E-07


--------------------------------------------------------------------------------------------------------


    POTLOK:  cpu time    0.01: real time    0.01


--------------------------------------------------------------------------------------------------------


 stress matrix after NEB project (eV)
     -1.19533      0.07222      0.11187
      0.07222     -0.88101      0.22147
      0.11187      0.22147     -0.53146
  FORCES: max atom, RMS     0.018077    0.009897
  FORCE total and by dimension    0.022130    0.012000
  Stress total and by dimension    1.618955    1.195333


--------------------------------------------------------------------------------------------------------


  
 reached required accuracy - stopping structural energy minimisation
 writing wavefunctions
     LOOP+:  cpu time    2.01: real time    2.09
    4ORBIT:  cpu time    0.00: real time    0.00

 total amount of memory used by VASP on root node    61338. kBytes
========================================================================

   base      :      30000. kBytes
   nonl-proj :      29425. kBytes
   fftplans  :        145. kBytes
   grid      :        538. kBytes
   one-center:         77. kBytes
   wavefun   :       1153. kBytes
 
  
  
 General timing and accounting informations for this job:
 ========================================================
  
                  Total CPU time used (sec):       34.490
                            User time (sec):       34.153
                          System time (sec):        0.338
                         Elapsed time (sec):       34.684
  
                   Maximum memory used (kb):       89456.
                   Average memory used (kb):           0.
  
                          Minor page faults:        39016
                          Major page faults:            0
                 Voluntary context switches:         1228
