    5    5    1    1
  0.1172182E+02  0.3884380E-09  0.3884380E-09  0.3884380E-09  0.5000000E-15
  1.000000000000000E-004
  CAR 
 unknown system                          
     36     10     22
 
  0.0000000E+00  0.0000000E+00  0.0000000E+00  0.8000000E-02
    1      -29.045712
    2      -29.045712
    3      -29.045712
    4      -16.611494
    5      -16.611494
    6      -16.611494
    7      -13.872923
    8      -12.776658
    9      -12.776658
   10        0.648316
   11        0.648316
   12        0.648316
   13        2.574682
   14        2.574682
   15        2.574682
   16        3.284031
   17        3.284031
   18        3.284031
   19        5.564733
   20        5.564733
   21        5.564733
   22        8.033667
 
  0.2000000E+00  0.0000000E+00  0.0000000E+00  0.4800000E-01
    1      -29.071869
    2      -29.044645
    3      -29.044645
    4      -16.694528
    5      -16.607899
    6      -16.607899
    7      -13.654803
    8      -12.766673
    9      -12.672150
   10        0.223530
   11        0.672864
   12        0.672864
   13        2.087065
   14        2.087065
   15        2.225415
   16        2.269249
   17        3.127276
   18        3.127276
   19        5.623944
   20        6.342312
   21        6.342312
   22        8.058366
 
  0.4000000E+00  0.0000000E+00  0.0000000E+00  0.4800000E-01
    1      -29.113681
    2      -29.042903
    3      -29.042903
    4      -16.817864
    5      -16.602083
    6      -16.602083
    7      -13.302845
    8      -12.744601
    9      -12.486453
   10       -0.550869
   11        0.820303
   12        0.820303
   13        1.144062
   14        1.344868
   15        1.344868
   16        1.863593
   17        3.016353
   18        3.016353
   19        5.725383
   20        7.357673
   21        7.357673
   22        8.071003
 
  0.2000000E+00  0.2000000E+00  0.0000000E+00  0.9600000E-01
    1      -29.070942
    2      -29.070842
    3      -29.043609
    4      -16.699374
    5      -16.656905
    6      -16.604022
    7      -13.469556
    8      -12.709826
    9      -12.614855
   10        0.008945
   11        0.417787
   12        0.690788
   13        1.145397
   14        1.805922
   15        2.180756
   16        2.351209
   17        2.805698
   18        2.816553
   19        6.296944
   20        6.445761
   21        6.655393
   22        8.533072
 
  0.4000000E+00  0.2000000E+00  0.0000000E+00  0.1920000E+00
    1      -29.112849
    2      -29.069305
    3      -29.041909
    4      -16.786098
    5      -16.651683
    6      -16.597742
    7      -13.193700
    8      -12.657864
    9      -12.435613
   10       -0.576701
   11       -0.062337
   12        0.510900
   13        0.813181
   14        1.230483
   15        1.604420
   16        2.291155
   17        2.578896
   18        2.813945
   19        6.424718
   20        7.361235
   21        7.400302
   22        8.673374
 
  0.4000000E+00  0.4000000E+00  0.0000000E+00  0.9600000E-01
    1      -29.111506
    2      -29.111484
    3      -29.040275
    4      -16.739739
    5      -16.724852
    6      -16.590722
    7      -13.119693
    8      -12.396561
    9      -12.341174
   10       -0.909294
   11       -0.617988
   12       -0.402808
   13        0.839945
   14        0.998343
   15        1.766015
   16        1.847725
   17        2.124997
   18        3.475884
   19        7.346008
   20        7.390574
   21        7.746220
   22        8.989506
 
  0.2000000E+00  0.2000000E+00  0.2000000E+00  0.6400000E-01
    1      -29.070005
    2      -29.069787
    3      -29.069787
    4      -16.698048
    5      -16.647701
    6      -16.647701
    7      -13.288600
    8      -12.617442
    9      -12.617442
   10       -0.165463
   11        0.389128
   12        0.389128
   13        1.082302
   14        1.082302
   15        1.462969
   16        2.676414
   17        2.676414
   18        2.937014
   19        6.646483
   20        6.749467
   21        6.749468
   22        9.498782
 
  0.4000000E+00  0.2000000E+00  0.2000000E+00  0.1920000E+00
    1      -29.111844
    2      -29.068481
    3      -29.067908
    4      -16.759800
    5      -16.651563
    6      -16.632684
    7      -13.023958
    8      -12.621420
    9      -12.414552
   10       -0.595734
   11       -0.130369
   12        0.191043
   13        0.326369
   14        0.684825
   15        1.380296
   16        2.568502
   17        2.659638
   18        2.974316
   19        6.806502
   20        7.437812
   21        7.469450
   22        9.626939
 
  0.4000000E+00  0.4000000E+00  0.2000000E+00  0.1920000E+00
    1      -29.110237
    2      -29.110196
    3      -29.066376
    4      -16.721407
    5      -16.708573
    6      -16.626461
    7      -12.884320
    8      -12.411808
    9      -12.366302
   10       -0.798660
   11       -0.581063
   12       -0.397084
   13        0.108515
   14        0.198643
   15        0.955129
   16        2.711467
   17        2.749519
   18        3.507931
   19        7.515116
   20        7.551785
   21        7.821653
   22        9.751141
 
  0.4000000E+00  0.4000000E+00  0.4000000E+00  0.6400000E-01
    1      -29.108381
    2      -29.108070
    3      -29.108070
    4      -16.693321
    5      -16.681809
    6      -16.681809
    7      -12.504114
    8      -12.407983
    9      -12.407983
   10       -0.743121
   11       -0.503175
   12       -0.464278
   13       -0.464278
   14       -0.352663
   15       -0.352663
   16        3.447295
   17        3.447295
   18        3.601944
   19        7.918616
   20        7.957611
   21        7.957611
   22        9.662366
