    5    5    1    1
  0.1170210E+02  0.3882200E-09  0.3882200E-09  0.3882200E-09  0.5000000E-15
  1.000000000000000E-004
  CAR 
 unknown system                          
     36     20     22
 
  0.0000000E+00  0.0000000E+00  0.0000000E+00  0.4629630E-02
    1      -29.023326
    2      -29.023326
    3      -29.023326
    4      -16.592771
    5      -16.592771
    6      -16.592771
    7      -13.867975
    8      -12.769824
    9      -12.769824
   10        0.657860
   11        0.657860
   12        0.657860
   13        2.583519
   14        2.583519
   15        2.583519
   16        3.296268
   17        3.296268
   18        3.296268
   19        5.583482
   20        5.583482
   21        5.583482
   22        8.060414
 
  0.1666667E+00  0.0000000E+00  0.0000000E+00  0.2777778E-01
    1      -29.042443
    2      -29.022546
    3      -29.022546
    4      -16.654145
    5      -16.590153
    6      -16.590153
    7      -13.709171
    8      -12.762496
    9      -12.694629
   10        0.351169
   11        0.673453
   12        0.673453
   13        2.224662
   14        2.224662
   15        2.358026
   16        2.486124
   17        3.168427
   18        3.168427
   19        5.626308
   20        6.167093
   21        6.167093
   22        8.082302
 
  0.3333333E+00  0.0000000E+00  0.0000000E+00  0.2777778E-01
    1      -29.080299
    2      -29.020974
    3      -29.020974
    4      -16.768062
    5      -16.584908
    6      -16.584908
    7      -13.391655
    8      -12.743389
    9      -12.531594
   10       -0.315520
   11        0.760275
   12        0.760275
   13        1.401612
   14        1.571108
   15        1.571108
   16        1.977894
   17        3.053960
   18        3.053960
   19        5.716161
   20        7.113659
   21        7.113659
   22        8.096805
 
  0.5000000E+00  0.0000000E+00  0.0000000E+00  0.1388889E-01
    1      -29.099033
    2      -29.020193
    3      -29.020193
    4      -16.821307
    5      -16.582279
    6      -16.582279
    7      -13.232522
    8      -12.734428
    9      -12.440566
   10       -0.688231
   11        0.920964
   12        0.920964
   13        1.020162
   14        1.173932
   15        1.173932
   16        1.805103
   17        3.018354
   18        3.018354
   19        5.763293
   20        7.544972
   21        7.544972
   22        8.100870
 
  0.1666667E+00  0.1666667E+00  0.0000000E+00  0.5555556E-01
    1      -29.041754
    2      -29.041664
    3      -29.021781
    4      -16.662740
    5      -16.626218
    6      -16.587388
    7      -13.566645
    8      -12.722802
    9      -12.652187
   10        0.181993
   11        0.521058
   12        0.685166
   13        1.511025
   14        1.993034
   15        2.392331
   16        2.496396
   17        2.793810
   18        2.940472
   19        6.126581
   20        6.258442
   21        6.448884
   22        8.448413
 
  0.3333333E+00  0.1666667E+00  0.0000000E+00  0.1111111E+00
    1      -29.079667
    2      -29.040246
    3      -29.020238
    4      -16.749339
    5      -16.623587
    6      -16.581843
    7      -13.291230
    8      -12.689144
    9      -12.497569
   10       -0.356130
   11        0.267586
   12        0.759705
   13        0.773326
   14        1.466821
   15        1.718864
   16        2.452936
   17        2.703884
   18        2.732684
   19        6.245630
   20        7.123462
   21        7.157895
   22        8.575678
 
  0.5000000E+00  0.1666667E+00  0.0000000E+00  0.5555556E-01
    1      -29.098461
    2      -29.039516
    3      -29.019474
    4      -16.795537
    5      -16.617098
    6      -16.579065
    7      -13.163959
    8      -12.674034
    9      -12.402111
   10       -0.694065
   11        0.021656
   12        0.628118
   13        0.915558
   14        1.098288
   15        1.497573
   16        2.445491
   17        2.601241
   18        2.671865
   19        6.280174
   20        7.541410
   21        7.550531
   22        8.592065
 
  0.3333333E+00  0.3333333E+00  0.0000000E+00  0.5555556E-01
    1      -29.078415
    2      -29.078349
    3      -29.018745
    4      -16.722073
    5      -16.688766
    6      -16.575694
    7      -13.148396
    8      -12.524639
    9      -12.406863
   10       -0.639660
   11       -0.173784
   12       -0.140924
   13        0.791168
   14        1.201378
   15        1.783071
   16        1.949053
   17        2.330498
   18        3.260231
   19        7.085238
   20        7.188524
   21        7.485044
   22        8.924057
 
  0.5000000E+00  0.3333333E+00  0.0000000E+00  0.5555556E-01
    1      -29.097286
    2      -29.077760
    3      -29.018007
    4      -16.743917
    5      -16.685015
    6      -16.572618
    7      -13.110251
    8      -12.440951
    9      -12.322208
   10       -0.801416
   11       -0.721400
   12       -0.196358
   13        0.901248
   14        0.958273
   15        1.707020
   16        1.925914
   17        2.195144
   18        3.396001
   19        7.146462
   20        7.542386
   21        7.750375
   22        8.991636
 
  0.5000000E+00  0.5000000E+00  0.0000000E+00  0.1388889E-01
    1      -29.096679
    2      -29.096679
    3      -29.017280
    4      -16.718158
    5      -16.718158
    6      -16.569387
    7      -13.111347
    8      -12.281528
    9      -12.281528
   10       -1.097874
   11       -0.840479
   12       -0.554734
   13        0.892110
   14        0.892110
   15        1.810500
   16        1.810500
   17        2.012130
   18        3.644382
   19        7.544392
   20        7.544392
   21        7.943776
   22        9.065555
 
  0.1666667E+00  0.1666667E+00  0.1666667E+00  0.3703704E-01
    1      -29.041009
    2      -29.040921
    3      -29.040921
    4      -16.666684
    5      -16.620542
    6      -16.620542
    7      -13.431067
    8      -12.650620
    9      -12.650620
   10        0.028372
   11        0.510266
   12        0.510266
   13        1.415382
   14        1.415382
   15        1.888965
   16        2.730858
   17        2.730858
   18        2.845876
   19        6.415114
   20        6.525650
   21        6.525650
   22        9.216784
 
  0.3333333E+00  0.1666667E+00  0.1666667E+00  0.1111111E+00
    1      -29.078949
    2      -29.039655
    3      -29.039268
    4      -16.732746
    5      -16.625427
    6      -16.609159
    7      -13.170445
    8      -12.648401
    9      -12.481838
   10       -0.397885
   11        0.179780
   12        0.421742
   13        0.652527
   14        0.908760
   15        1.727186
   16        2.485442
   17        2.676586
   18        2.846524
   19        6.562397
   20        7.186113
   21        7.204805
   22        9.276609
 
  0.5000000E+00  0.1666667E+00  0.1666667E+00  0.5555556E-01
    1      -29.097752
    2      -29.038976
    3      -29.038438
    4      -16.772959
    5      -16.619223
    6      -16.603431
    7      -13.051540
    8      -12.647574
    9      -12.376228
   10       -0.694676
   11       -0.088536
   12        0.314534
   13        0.442731
   14        0.800495
   15        1.789332
   16        2.335732
   17        2.652898
   18        2.762418
   19        6.604803
   20        7.561740
   21        7.598682
   22        9.264268
 
  0.3333333E+00  0.3333333E+00  0.1666667E+00  0.1111111E+00
    1      -29.077558
    2      -29.077507
    3      -29.037893
    4      -16.708597
    5      -16.678167
    6      -16.604354
    7      -12.991053
    8      -12.514439
    9      -12.422127
   10       -0.618604
   11       -0.141822
   12       -0.134482
   13        0.304024
   14        0.550264
   15        1.266070
   16        2.569066
   17        2.605950
   18        3.288336
   19        7.220135
   20        7.300911
   21        7.536847
   22        9.722017
 
  0.5000000E+00  0.3333333E+00  0.1666667E+00  0.1111111E+00
    1      -29.096372
    2      -29.076817
    3      -29.037109
    4      -16.728008
    5      -16.675359
    6      -16.599008
    7      -12.943021
    8      -12.459082
    9      -12.326908
   10       -0.714321
   11       -0.712691
   12       -0.198585
   13        0.231683
   14        0.419521
   15        1.266236
   16        2.526680
   17        2.593401
   18        3.420205
   19        7.293308
   20        7.633242
   21        7.804161
   22        9.725933
 
  0.5000000E+00  0.5000000E+00  0.1666667E+00  0.2777778E-01
    1      -29.095689
    2      -29.095689
    3      -29.036314
    4      -16.705560
    5      -16.705560
    6      -16.594042
    7      -12.937502
    8      -12.302403
    9      -12.302403
   10       -0.979474
   11       -0.828281
   12       -0.550643
   13        0.251298
   14        0.251298
   15        1.216259
   16        2.562750
   17        2.562750
   18        3.666970
   19        7.659891
   20        7.659891
   21        8.003330
   22        9.609551
 
  0.3333333E+00  0.3333333E+00  0.3333333E+00  0.3703704E-01
    1      -29.076189
    2      -29.075640
    3      -29.075640
    4      -16.686010
    5      -16.656685
    6      -16.656685
    7      -12.699763
    8      -12.450449
    9      -12.450449
   10       -0.642327
   11       -0.217684
   12       -0.217684
   13       -0.019004
   14       -0.000451
   15       -0.000451
   16        3.104050
   17        3.104050
   18        3.422172
   19        7.602059
   20        7.659176
   21        7.659176
   22        9.865009
 
  0.5000000E+00  0.3333333E+00  0.3333333E+00  0.5555556E-01
    1      -29.094612
    2      -29.075241
    3      -29.074692
    4      -16.696080
    5      -16.661183
    6      -16.645821
    7      -12.621045
    8      -12.463795
    9      -12.339161
   10       -0.720600
   11       -0.593513
   12       -0.380042
   13       -0.314923
   14       -0.060723
   15        0.041590
   16        3.193366
   17        3.284102
   18        3.527951
   19        7.692869
   20        7.885820
   21        7.933422
   22        9.823853
 
  0.5000000E+00  0.5000000E+00  0.3333333E+00  0.2777778E-01
    1      -29.093726
    2      -29.093726
    3      -29.074042
    4      -16.680021
    5      -16.680021
    6      -16.642873
    7      -12.567349
    8      -12.346060
    9      -12.346060
   10       -0.828142
   11       -0.736999
   12       -0.542487
   13       -0.383456
   14       -0.383456
   15       -0.068948
   16        3.409041
   17        3.409041
   18        3.712684
   19        7.964271
   20        7.964271
   21        8.124325
   22        9.533108
 
  0.5000000E+00  0.5000000E+00  0.5000000E+00  0.4629630E-02
    1      -29.092759
    2      -29.092759
    3      -29.092759
    4      -16.667055
    5      -16.667055
    6      -16.667055
    7      -12.368456
    8      -12.368456
    9      -12.368456
   10       -0.925232
   11       -0.611259
   12       -0.611259
   13       -0.611259
   14       -0.538950
   15       -0.538950
   16        3.735042
   17        3.735042
   18        3.735042
   19        8.187000
   20        8.187000
   21        8.187001
   22        9.438321
