    5    5    1    1
  0.1172182E+02  0.3884380E-09  0.3884380E-09  0.3884380E-09  0.5000000E-15
  1.000000000000000E-004
  CAR 
 unknown system                          
     36     20     22
 
  0.0000000E+00  0.0000000E+00  0.0000000E+00  0.4629630E-02
    1      -29.042747
    2      -29.042747
    3      -29.042747
    4      -16.611914
    5      -16.611914
    6      -16.611914
    7      -13.874490
    8      -12.778393
    9      -12.778393
   10        0.647029
   11        0.647029
   12        0.647029
   13        2.572987
   14        2.572987
   15        2.572987
   16        3.282035
   17        3.282035
   18        3.282035
   19        5.566838
   20        5.566838
   21        5.566838
   22        8.035869
 
  0.1666667E+00  0.0000000E+00  0.0000000E+00  0.2777778E-01
    1      -29.061707
    2      -29.041975
    3      -29.041975
    4      -16.672613
    5      -16.609314
    6      -16.609314
    7      -13.716585
    8      -12.771127
    9      -12.703880
   10        0.340798
   11        0.662858
   12        0.662858
   13        2.214726
   14        2.214726
   15        2.348057
   16        2.473486
   17        3.154471
   18        3.154471
   19        5.609461
   20        6.148874
   21        6.148874
   22        8.056769
 
  0.3333333E+00  0.0000000E+00  0.0000000E+00  0.2777778E-01
    1      -29.099278
    2      -29.040430
    3      -29.040430
    4      -16.785445
    5      -16.604107
    6      -16.604107
    7      -13.402549
    8      -12.752947
    9      -12.542894
   10       -0.324946
   11        0.749500
   12        0.749500
   13        1.388334
   14        1.560224
   15        1.560224
   16        1.967991
   17        3.036525
   18        3.036525
   19        5.698774
   20        7.091552
   21        7.091552
   22        8.070709
 
  0.5000000E+00  0.0000000E+00  0.0000000E+00  0.1388889E-01
    1      -29.117835
    2      -29.039644
    3      -29.039644
    4      -16.838142
    5      -16.601497
    6      -16.601497
    7      -13.242296
    8      -12.743211
    9      -12.452122
   10       -0.696126
   11        0.910643
   12        0.910643
   13        1.010721
   14        1.165626
   15        1.165626
   16        1.796650
   17        3.004857
   18        3.004857
   19        5.745765
   20        7.522656
   21        7.522656
   22        8.074823
 
  0.1666667E+00  0.1666667E+00  0.0000000E+00  0.5555556E-01
    1      -29.061023
    2      -29.060936
    3      -29.041217
    4      -16.681083
    5      -16.645065
    6      -16.606570
    7      -13.574733
    8      -12.731772
    9      -12.661786
   10        0.172543
   11        0.510412
   12        0.674850
   13        1.501569
   14        1.983723
   15        2.380250
   16        2.485126
   17        2.782013
   18        2.926679
   19        6.108460
   20        6.239847
   21        6.430029
   22        8.422013
 
  0.3333333E+00  0.1666667E+00  0.0000000E+00  0.1111111E+00
    1      -29.098625
    2      -29.059529
    3      -29.039688
    4      -16.766899
    5      -16.642449
    6      -16.601066
    7      -13.300472
    8      -12.698368
    9      -12.508536
   10       -0.364709
   11        0.259338
   12        0.750006
   13        0.763364
   14        1.458208
   15        1.709024
   16        2.441253
   17        2.692799
   18        2.719136
   19        6.226974
   20        7.102435
   21        7.137108
   22        8.548634
 
  0.5000000E+00  0.1666667E+00  0.0000000E+00  0.5555556E-01
    1      -29.117268
    2      -29.058806
    3      -29.038932
    4      -16.812692
    5      -16.636027
    6      -16.598309
    7      -13.173603
    8      -12.683414
    9      -12.413987
   10       -0.702017
   11        0.015101
   12        0.617607
   13        0.905805
   14        1.090250
   15        1.488181
   16        2.433696
   17        2.590512
   18        2.658397
   19        6.261319
   20        7.519064
   21        7.528502
   22        8.564921
 
  0.3333333E+00  0.3333333E+00  0.0000000E+00  0.5555556E-01
    1      -29.097383
    2      -29.097319
    3      -29.038209
    4      -16.739984
    5      -16.707106
    6      -16.594968
    7      -13.157295
    8      -12.535509
    9      -12.418530
   10       -0.646008
   11       -0.182671
   12       -0.149436
   13        0.782440
   14        1.193633
   15        1.773155
   16        1.938631
   17        2.316671
   18        3.248014
   19        7.064296
   20        7.167185
   21        7.463641
   22        8.895986
 
  0.5000000E+00  0.3333333E+00  0.0000000E+00  0.5555556E-01
    1      -29.116101
    2      -29.096733
    3      -29.037478
    4      -16.761716
    5      -16.703397
    6      -16.591916
    7      -13.118797
    8      -12.452502
    9      -12.334675
   10       -0.806252
   11       -0.729704
   12       -0.205166
   13        0.893026
   14        0.950803
   15        1.697071
   16        1.915572
   17        2.181122
   18        3.383466
   19        7.125240
   20        7.520010
   21        7.728189
   22        8.963408
 
  0.5000000E+00  0.5000000E+00  0.0000000E+00  0.1388889E-01
    1      -29.115498
    2      -29.115498
    3      -29.036759
    4      -16.736279
    5      -16.736279
    6      -16.588712
    7      -13.119339
    8      -12.294275
    9      -12.294275
   10       -1.102086
   11       -0.849235
   12       -0.561769
   13        0.884923
   14        0.884923
   15        1.800275
   16        1.800275
   17        1.997487
   18        3.631346
   19        7.521997
   20        7.521997
   21        7.921158
   22        9.037279
 
  0.1666667E+00  0.1666667E+00  0.1666667E+00  0.3703704E-01
    1      -29.060301
    2      -29.060215
    3      -29.060215
    4      -16.684988
    5      -16.639449
    6      -16.639449
    7      -13.440169
    8      -12.661973
    9      -12.661973
   10        0.017709
   11        0.497632
   12        0.497632
   13        1.405090
   14        1.405090
   15        1.875307
   16        2.717300
   17        2.717300
   18        2.829869
   19        6.395759
   20        6.505845
   21        6.505845
   22        9.193733
 
  0.3333333E+00  0.1666667E+00  0.1666667E+00  0.1111111E+00
    1      -29.097914
    2      -29.058944
    3      -29.058561
    4      -16.750507
    5      -16.644265
    6      -16.628168
    7      -13.180108
    8      -12.657912
    9      -12.492910
   10       -0.406102
   11        0.171467
   12        0.413639
   13        0.643609
   14        0.898870
   15        1.715424
   16        2.474071
   17        2.664937
   18        2.835442
   19        6.542860
   20        7.164971
   21        7.183932
   22        9.248487
 
  0.5000000E+00  0.1666667E+00  0.1666667E+00  0.5555556E-01
    1      -29.116563
    2      -29.058270
    3      -29.057739
    4      -16.790386
    5      -16.638124
    6      -16.622496
    7      -13.061558
    8      -12.657056
    9      -12.388272
   10       -0.702662
   11       -0.094937
   12        0.307816
   13        0.433585
   14        0.789610
   15        1.777318
   16        2.324744
   17        2.641376
   18        2.751591
   19        6.585057
   20        7.539468
   21        7.576536
   22        9.236040
 
  0.3333333E+00  0.3333333E+00  0.1666667E+00  0.1111111E+00
    1      -29.096535
    2      -29.096484
    3      -29.057198
    4      -16.726660
    5      -16.696608
    6      -16.623403
    7      -13.000739
    8      -12.525277
    9      -12.433638
   10       -0.625277
   11       -0.150252
   12       -0.143048
   13        0.296118
   14        0.542995
   15        1.253919
   16        2.557930
   17        2.594759
   18        3.276101
   19        7.198738
   20        7.279419
   21        7.515153
   22        9.694867
 
  0.5000000E+00  0.3333333E+00  0.1666667E+00  0.1111111E+00
    1      -29.115194
    2      -29.095800
    3      -29.056421
    4      -16.745976
    5      -16.693829
    6      -16.618106
    7      -12.952391
    8      -12.470379
    9      -12.339279
   10       -0.722670
   11       -0.717791
   12       -0.207254
   13        0.224951
   14        0.411807
   15        1.253856
   16        2.515686
   17        2.582308
   18        3.407660
   19        7.271679
   20        7.610686
   21        7.781681
   22        9.699434
 
  0.5000000E+00  0.5000000E+00  0.1666667E+00  0.2777778E-01
    1      -29.114518
    2      -29.114518
    3      -29.055634
    4      -16.723799
    5      -16.723799
    6      -16.613184
    7      -12.946346
    8      -12.314926
    9      -12.314926
   10       -0.984074
   11       -0.837161
   12       -0.557694
   13        0.244538
   14        0.244538
   15        1.203427
   16        2.551725
   17        2.551725
   18        3.653858
   19        7.637201
   20        7.637201
   21        7.980338
   22        9.585984
 
  0.3333333E+00  0.3333333E+00  0.3333333E+00  0.3703704E-01
    1      -29.095177
    2      -29.094635
    3      -29.094635
    4      -16.704333
    5      -16.675335
    6      -16.675335
    7      -12.710811
    8      -12.461629
    9      -12.461629
   10       -0.649377
   11       -0.224671
   12       -0.224671
   13       -0.029136
   14       -0.008340
   15       -0.008340
   16        3.092048
   17        3.092048
   18        3.409627
   19        7.579538
   20        7.636925
   21        7.636925
   22        9.844587
 
  0.5000000E+00  0.3333333E+00  0.3333333E+00  0.5555556E-01
    1      -29.113451
    2      -29.094238
    3      -29.093696
    4      -16.714387
    5      -16.679783
    6      -16.664577
    7      -12.632067
    8      -12.474799
    9      -12.351338
   10       -0.729392
   11       -0.599043
   12       -0.386006
   13       -0.322358
   14       -0.069332
   15        0.032891
   16        3.181259
   17        3.271689
   18        3.515184
   19        7.670204
   20        7.862675
   21        7.910296
   22        9.803466
 
  0.5000000E+00  0.5000000E+00  0.3333333E+00  0.2777778E-01
    1      -29.112576
    2      -29.112576
    3      -29.093052
    4      -16.698500
    5      -16.698500
    6      -16.661653
    7      -12.578110
    8      -12.358135
    9      -12.358135
   10       -0.837630
   11       -0.742410
   12       -0.549570
   13       -0.389514
   14       -0.389514
   15       -0.078121
   16        3.396437
   17        3.396437
   18        3.699411
   19        7.940805
   20        7.940805
   21        8.100553
   22        9.513455
 
  0.5000000E+00  0.5000000E+00  0.5000000E+00  0.4629630E-02
    1      -29.111618
    2      -29.111618
    3      -29.111618
    4      -16.685659
    5      -16.685659
    6      -16.685659
    7      -12.380306
    8      -12.380306
    9      -12.380306
   10       -0.935275
   11       -0.617073
   12       -0.617073
   13       -0.617073
   14       -0.546054
   15       -0.546054
   16        3.721676
   17        3.721676
   18        3.721676
   19        8.162828
   20        8.162828
   21        8.162829
   22        9.419121
