    5    5 1024    1
  0.1170210E+02  0.3882200E-09  0.3882200E-09  0.3882200E-09  0.5000000E-15
  1.000000000000000E-004
  CAR 
 unknown system                          
     36     19     22
 
  0.0000000E+00  0.0000000E+00  0.0000000E+00  0.8000000E-02
    1      -29.026600
    2      -29.026524
    3      -29.026524
    4      -16.593375
    5      -16.593253
    6      -16.593253
    7      -13.867244
    8      -12.768920
    9      -12.768920
   10        0.657972
   11        0.657972
   12        0.658705
   13        2.573890
   14        2.573890
   15        2.582806
   16        3.277840
   17        3.285858
   18        3.285858
   19        5.596297
   20        5.596297
   21        5.603806
   22        8.067096
 
  0.2000000E+00  0.0000000E+00  0.0000000E+00  0.4800000E-01
    1      -29.052911
    2      -29.025494
    3      -29.025446
    4      -16.677279
    5      -16.589670
    6      -16.589611
    7      -13.647976
    8      -12.758908
    9      -12.663708
   10        0.231993
   11        0.681913
   12        0.682553
   13        2.071804
   14        2.088183
   15        2.251387
   16        2.277341
   17        3.127532
   18        3.132090
   19        5.657287
   20        6.365171
   21        6.369820
   22        8.093449
 
  0.4000000E+00  0.0000000E+00  0.0000000E+00  0.4800000E-01
    1      -29.095043
    2      -29.023737
    3      -29.023689
    4      -16.801832
    5      -16.583810
    6      -16.583721
    7      -13.294250
    8      -12.736826
    9      -12.476899
   10       -0.544297
   11        0.827566
   12        0.828440
   13        1.146396
   14        1.350700
   15        1.360222
   16        1.869162
   17        3.016299
   18        3.022093
   19        5.758286
   20        7.379089
   21        7.384547
   22        8.105536
 
  0.2000000E+00  0.2000000E+00  0.0000000E+00  0.4800000E-01
    1      -29.051953
    2      -29.051895
    3      -29.024423
    4      -16.682222
    5      -16.639069
    6      -16.585712
    7      -13.462026
    8      -12.701763
    9      -12.606030
   10        0.017506
   11        0.427325
   12        0.699556
   13        1.148535
   14        1.806801
   15        2.182516
   16        2.361912
   17        2.816987
   18        2.823770
   19        6.322345
   20        6.470379
   21        6.679459
   22        8.567714
 
  0.4000000E+00  0.2000000E+00  0.0000000E+00  0.9600000E-01
    1      -29.094205
    2      -29.050323
    3      -29.022708
    4      -16.769670
    5      -16.633819
    6      -16.579364
    7      -13.185250
    8      -12.649497
    9      -12.425731
   10       -0.569372
   11       -0.057417
   12        0.520224
   13        0.819846
   14        1.234761
   15        1.613525
   16        2.291676
   17        2.594513
   18        2.821629
   19        6.449789
   20        7.385287
   21        7.423499
   22        8.706951
 
 -0.4000000E+00  0.2000000E+00  0.0000000E+00  0.9600000E-01
    1      -29.094207
    2      -29.050322
    3      -29.022708
    4      -16.769668
    5      -16.633817
    6      -16.579364
    7      -13.185252
    8      -12.649464
    9      -12.425746
   10       -0.571511
   11       -0.059202
   12        0.524908
   13        0.819340
   14        1.235421
   15        1.613775
   16        2.291426
   17        2.594516
   18        2.821453
   19        6.449340
   20        7.385057
   21        7.423345
   22        8.706723
 
 -0.2000000E+00  0.2000000E+00  0.0000000E+00  0.4800000E-01
    1      -29.052289
    2      -29.051560
    3      -29.024423
    4      -16.682228
    5      -16.639058
    6      -16.585713
    7      -13.461996
    8      -12.701736
    9      -12.606066
   10        0.015568
   11        0.421572
   12        0.699268
   13        1.157573
   14        1.807363
   15        2.183709
   16        2.360868
   17        2.816657
   18        2.824435
   19        6.318248
   20        6.473482
   21        6.678100
   22        8.567350
 
  0.4000000E+00  0.4000000E+00  0.0000000E+00  0.4800000E-01
    1      -29.092835
    2      -29.092829
    3      -29.021058
    4      -16.722747
    5      -16.707563
    6      -16.572273
    7      -13.111806
    8      -12.386274
    9      -12.330621
   10       -0.904363
   11       -0.610429
   12       -0.394043
   13        0.844053
   14        1.001767
   15        1.772803
   16        1.857671
   17        2.140762
   18        3.485543
   19        7.370847
   20        7.415272
   21        7.768480
   22        9.019384
 
 -0.4000000E+00  0.4000000E+00  0.0000000E+00  0.4800000E-01
    1      -29.093059
    2      -29.092605
    3      -29.021057
    4      -16.722735
    5      -16.707572
    6      -16.572273
    7      -13.111823
    8      -12.386130
    9      -12.330734
   10       -0.906935
   11       -0.612555
   12       -0.389073
   13        0.843063
   14        1.002892
   15        1.774058
   16        1.856505
   17        2.140700
   18        3.485374
   19        7.369819
   20        7.415918
   21        7.768658
   22        9.019043
 
  0.2000000E+00  0.2000000E+00  0.2000000E+00  0.1600000E-01
    1      -29.051057
    2      -29.050786
    3      -29.050786
    4      -16.680873
    5      -16.629768
    6      -16.629768
    7      -13.279595
    8      -12.608731
    9      -12.608731
   10       -0.156681
   11        0.398449
   12        0.398449
   13        1.086358
   14        1.086359
   15        1.472632
   16        2.683239
   17        2.683239
   18        2.945941
   19        6.673159
   20        6.773141
   21        6.773141
   22        9.518430
 
  0.4000000E+00  0.2000000E+00  0.2000000E+00  0.4800000E-01
    1      -29.093191
    2      -29.049511
    3      -29.048889
    4      -16.743079
    5      -16.633727
    6      -16.614577
    7      -13.015072
    8      -12.612920
    9      -12.404586
   10       -0.587757
   11       -0.124394
   12        0.194429
   13        0.334306
   14        0.695810
   15        1.387517
   16        2.576977
   17        2.665705
   18        2.982655
   19        6.831641
   20        7.460227
   21        7.493722
   22        9.657687
 
 -0.4000000E+00  0.2000000E+00  0.2000000E+00  0.4800000E-01
    1      -29.093195
    2      -29.049508
    3      -29.048889
    4      -16.743072
    5      -16.633722
    6      -16.614568
    7      -13.015052
    8      -12.612933
    9      -12.404590
   10       -0.591387
   11       -0.126866
   12        0.192358
   13        0.339801
   14        0.698366
   15        1.389107
   16        2.577813
   17        2.666801
   18        2.980908
   19        6.831239
   20        7.458311
   21        7.494379
   22        9.658390
 
 -0.2000000E+00  0.2000000E+00  0.2000000E+00  0.4800000E-01
    1      -29.051428
    2      -29.050786
    3      -29.050416
    4      -16.680872
    5      -16.629754
    6      -16.629750
    7      -13.279540
    8      -12.608768
    9      -12.608752
   10       -0.158853
   11        0.392110
   12        0.395053
   13        1.084226
   14        1.091455
   15        1.483775
   16        2.684053
   17        2.688072
   18        2.942909
   19        6.665385
   20        6.773766
   21        6.774705
   22        9.518037
 
  0.4000000E+00  0.4000000E+00  0.2000000E+00  0.4800000E-01
    1      -29.091586
    2      -29.091512
    3      -29.047364
    4      -16.704272
    5      -16.691128
    6      -16.608315
    7      -12.875923
    8      -12.401968
    9      -12.356048
   10       -0.792621
   11       -0.573883
   12       -0.387812
   13        0.113068
   14        0.202722
   15        0.967836
   16        2.718473
   17        2.758266
   18        3.517366
   19        7.538390
   20        7.576174
   21        7.844318
   22        9.771261
 
 -0.4000000E+00  0.4000000E+00  0.2000000E+00  0.9600000E-01
    1      -29.091774
    2      -29.091325
    3      -29.047363
    4      -16.704249
    5      -16.691132
    6      -16.608308
    7      -12.875946
    8      -12.401881
    9      -12.356124
   10       -0.795638
   11       -0.577971
   12       -0.382026
   13        0.111475
   14        0.203518
   15        0.970697
   16        2.720092
   17        2.757847
   18        3.516928
   19        7.538284
   20        7.574978
   21        7.844328
   22        9.769454
 
 -0.2000000E+00  0.4000000E+00  0.2000000E+00  0.9600000E-01
    1      -29.093192
    2      -29.049638
    3      -29.048762
    4      -16.743047
    5      -16.633743
    6      -16.614546
    7      -13.015086
    8      -12.612907
    9      -12.404619
   10       -0.589456
   11       -0.127119
   12        0.194774
   13        0.334095
   14        0.693027
   15        1.395279
   16        2.577411
   17        2.669987
   18        2.981304
   19        6.827244
   20        7.463038
   21        7.490389
   22        9.660041
 
 -0.4000000E+00 -0.4000000E+00  0.2000000E+00  0.4800000E-01
    1      -29.091589
    2      -29.091512
    3      -29.047363
    4      -16.704248
    5      -16.691120
    6      -16.608306
    7      -12.875944
    8      -12.401971
    9      -12.356061
   10       -0.793176
   11       -0.575062
   12       -0.389553
   13        0.109760
   14        0.204957
   15        0.973258
   16        2.720615
   17        2.757986
   18        3.516993
   19        7.535692
   20        7.576946
   21        7.843985
   22        9.768686
 
  0.4000000E+00  0.4000000E+00  0.4000000E+00  0.1600000E-01
    1      -29.089726
    2      -29.089364
    3      -29.089364
    4      -16.675950
    5      -16.664095
    6      -16.664095
    7      -12.494312
    8      -12.398234
    9      -12.398234
   10       -0.734358
   11       -0.495543
   12       -0.459611
   13       -0.459611
   14       -0.343727
   15       -0.343727
   16        3.455740
   17        3.455740
   18        3.612190
   19        7.938575
   20        7.982064
   21        7.982064
   22        9.682634
 
 -0.4000000E+00  0.4000000E+00  0.4000000E+00  0.4800000E-01
    1      -29.089889
    2      -29.089364
    3      -29.089201
    4      -16.675962
    5      -16.664089
    6      -16.664062
    7      -12.494380
    8      -12.398242
    9      -12.398177
   10       -0.736454
   11       -0.506715
   12       -0.463624
   13       -0.460911
   14       -0.339567
   15       -0.328849
   16        3.456599
   17        3.457033
   18        3.610649
   19        7.942141
   20        7.977721
   21        7.982612
   22        9.661524
