    5    5 1024    1
  0.1170210E+02  0.3882200E-09  0.3882200E-09  0.3882200E-09  0.5000000E-15
  1.000000000000000E-004
  CAR 
 unknown system                          
     36     63     22
 
  0.0000000E+00  0.0000000E+00  0.0000000E+00  0.8000000E-02
    1      -29.019983
    2      -29.019221
    3      -29.018558
    4      -16.592840
    5      -16.592262
    6      -16.592154
    7      -13.868423
    8      -12.772160
    9      -12.768170
   10        0.656216
   11        0.657142
   12        0.658363
   13        2.562369
   14        2.564953
   15        2.579713
   16        3.261795
   17        3.273587
   18        3.277244
   19        5.608829
   20        5.616555
   21        5.627932
   22        8.079536
 
  0.2000000E+00  0.0000000E+00  0.0000000E+00  0.1600000E-01
    1      -29.044971
    2      -29.018891
    3      -29.018127
    4      -16.676467
    5      -16.589038
    6      -16.588508
    7      -13.649102
    8      -12.759902
    9      -12.665542
   10        0.230428
   11        0.681269
   12        0.682697
   13        2.049353
   14        2.081686
   15        2.264655
   16        2.276141
   17        3.114239
   18        3.123575
   19        5.681265
   20        6.368361
   21        6.378594
   22        8.109743
 
  0.4000000E+00  0.0000000E+00  0.0000000E+00  0.1600000E-01
    1      -29.087138
    2      -29.017134
    3      -29.016369
    4      -16.801210
    5      -16.583109
    6      -16.582587
    7      -13.295123
    8      -12.737986
    9      -12.479426
   10       -0.543855
   11        0.827282
   12        0.829065
   13        1.136482
   14        1.348802
   15        1.368448
   16        1.866337
   17        3.001646
   18        3.013595
   19        5.781039
   20        7.379135
   21        7.391285
   22        8.121070
 
  0.0000000E+00  0.2000000E+00  0.0000000E+00  0.1600000E-01
    1      -29.046365
    2      -29.018142
    3      -29.017490
    4      -16.676344
    5      -16.589016
    6      -16.588611
    7      -13.648797
    8      -12.758756
    9      -12.666829
   10        0.230172
   11        0.679785
   12        0.681411
   13        2.056857
   14        2.080071
   15        2.253838
   16        2.275577
   17        3.119381
   18        3.127250
   19        5.670541
   20        6.376699
   21        6.383200
   22        8.105298
 
  0.2000000E+00  0.2000000E+00  0.0000000E+00  0.1600000E-01
    1      -29.045408
    2      -29.043950
    3      -29.017081
    4      -16.681399
    5      -16.638090
    6      -16.584991
    7      -13.462612
    8      -12.702060
    9      -12.609243
   10        0.016102
   11        0.426169
   12        0.698802
   13        1.143723
   14        1.798884
   15        2.176271
   16        2.363643
   17        2.816434
   18        2.817931
   19        6.331349
   20        6.479330
   21        6.687756
   22        8.580179
 
  0.4000000E+00  0.2000000E+00  0.0000000E+00  0.1600000E-01
    1      -29.086300
    2      -29.043775
    3      -29.015366
    4      -16.769033
    5      -16.632827
    6      -16.578559
    7      -13.184844
    8      -12.651992
    9      -12.428345
   10       -0.568751
   11       -0.059424
   12        0.518711
   13        0.819072
   14        1.231974
   15        1.615010
   16        2.283503
   17        2.595929
   18        2.816292
   19        6.462145
   20        7.388247
   21        7.429096
   22        8.718876
 
 -0.4000000E+00  0.2000000E+00  0.0000000E+00  0.1600000E-01
    1      -29.086303
    2      -29.043772
    3      -29.015366
    4      -16.769021
    5      -16.632839
    6      -16.578559
    7      -13.184836
    8      -12.651944
    9      -12.428361
   10       -0.572156
   11       -0.062251
   12        0.526088
   13        0.818253
   14        1.233019
   15        1.615301
   16        2.283056
   17        2.595946
   18        2.816138
   19        6.461468
   20        7.387922
   21        7.428896
   22        8.718543
 
 -0.2000000E+00  0.2000000E+00  0.0000000E+00  0.1600000E-01
    1      -29.045518
    2      -29.043842
    3      -29.017081
    4      -16.681344
    5      -16.638146
    6      -16.584991
    7      -13.462553
    8      -12.702019
    9      -12.609287
   10        0.013011
   11        0.417172
   12        0.698342
   13        1.157595
   14        1.799750
   15        2.178130
   16        2.361792
   17        2.814241
   18        2.821127
   19        6.324994
   20        6.484269
   21        6.685581
   22        8.579704
 
  0.0000000E+00  0.4000000E+00  0.0000000E+00  0.1600000E-01
    1      -29.088550
    2      -29.016382
    3      -29.015731
    4      -16.801001
    5      -16.583070
    6      -16.582740
    7      -13.294193
    8      -12.736789
    9      -12.481048
   10       -0.547658
   11        0.823897
   12        0.825788
   13        1.143998
   14        1.346949
   15        1.360904
   16        1.866634
   17        3.009980
   18        3.018901
   19        5.771011
   20        7.386379
   21        7.394069
   22        8.116820
 
  0.2000000E+00  0.4000000E+00  0.0000000E+00  0.1600000E-01
    1      -29.087713
    2      -29.042377
    3      -29.015365
    4      -16.768827
    5      -16.632976
    6      -16.578560
    7      -13.184446
    8      -12.650458
    9      -12.429935
   10       -0.572211
   11       -0.061218
   12        0.520565
   13        0.817490
   14        1.230644
   15        1.614857
   16        2.285514
   17        2.600979
   18        2.815545
   19        6.455304
   20        7.393950
   21        7.430203
   22        8.717028
 
  0.4000000E+00  0.4000000E+00  0.0000000E+00  0.1600000E-01
    1      -29.086359
    2      -29.084905
    3      -29.013714
    4      -16.722024
    5      -16.706745
    6      -16.571420
    7      -13.109998
    8      -12.389635
    9      -12.334053
   10       -0.905874
   11       -0.612790
   12       -0.392446
   13        0.840683
   14        0.997966
   15        1.772262
   16        1.859636
   17        2.144506
   18        3.479468
   19        7.377078
   20        7.421973
   21        7.773860
   22        9.025719
 
 -0.4000000E+00  0.4000000E+00  0.0000000E+00  0.1600000E-01
    1      -29.086405
    2      -29.084859
    3      -29.013714
    4      -16.721941
    5      -16.706826
    6      -16.571420
    7      -13.110017
    8      -12.389440
    9      -12.334197
   10       -0.910007
   11       -0.615898
   12       -0.384785
   13        0.839094
   14        0.999759
   15        1.774188
   16        1.857741
   17        2.144425
   18        3.479257
   19        7.375439
   20        7.423093
   21        7.774135
   22        9.025215
 
 -0.2000000E+00  0.4000000E+00  0.0000000E+00  0.1600000E-01
    1      -29.087716
    2      -29.042375
    3      -29.015365
    4      -16.768814
    5      -16.632988
    6      -16.578561
    7      -13.184439
    8      -12.650410
    9      -12.429950
   10       -0.575671
   11       -0.063837
   12        0.527786
   13        0.816670
   14        1.231693
   15        1.615115
   16        2.285058
   17        2.600987
   18        2.815448
   19        6.454674
   20        7.393535
   21        7.430035
   22        8.716711
 
  0.0000000E+00  0.0000000E+00  0.2000000E+00  0.1600000E-01
    1      -29.045591
    2      -29.018899
    3      -29.017489
    4      -16.676819
    5      -16.588651
    6      -16.588508
    7      -13.649537
    8      -12.762066
    9      -12.662836
   10        0.231892
   11        0.679930
   12        0.681773
   13        2.055186
   14        2.082127
   15        2.258361
   16        2.274150
   17        3.114398
   18        3.124153
   19        5.674462
   20        6.375060
   21        6.382114
   22        8.106789
 
  0.2000000E+00  0.0000000E+00  0.2000000E+00  0.1600000E-01
    1      -29.044639
    2      -29.043948
    3      -29.017836
    4      -16.681653
    5      -16.638225
    6      -16.584592
    7      -13.463802
    8      -12.704130
    9      -12.606043
   10        0.017302
   11        0.427003
   12        0.699202
   13        1.146040
   14        1.799828
   15        2.168679
   16        2.360229
   17        2.818065
   18        2.821712
   19        6.330337
   20        6.479688
   21        6.686990
   22        8.581618
 
  0.4000000E+00  0.0000000E+00  0.2000000E+00  0.1600000E-01
    1      -29.086300
    2      -29.043001
    3      -29.016121
    4      -16.769031
    5      -16.633119
    6      -16.578226
    7      -13.187569
    8      -12.649569
    9      -12.428130
   10       -0.568695
   11       -0.057071
   12        0.521141
   13        0.819726
   14        1.231096
   15        1.610465
   16        2.276413
   17        2.599345
   18        2.820387
   19        6.460722
   20        7.388423
   21        7.428699
   22        8.719329
 
 -0.4000000E+00  0.0000000E+00  0.2000000E+00  0.1600000E-01
    1      -29.086303
    2      -29.042999
    3      -29.016121
    4      -16.769020
    5      -16.633126
    6      -16.578227
    7      -13.187572
    8      -12.649519
    9      -12.428152
   10       -0.571601
   11       -0.059876
   12        0.527923
   13        0.819043
   14        1.231997
   15        1.610904
   16        2.276047
   17        2.599372
   18        2.820050
   19        6.459961
   20        7.388086
   21        7.428575
   22        8.718988
 
 -0.2000000E+00  0.0000000E+00  0.2000000E+00  0.1600000E-01
    1      -29.044823
    2      -29.043764
    3      -29.017836
    4      -16.681615
    5      -16.638258
    6      -16.584593
    7      -13.463761
    8      -12.704092
    9      -12.606090
   10        0.014591
   11        0.418819
   12        0.698813
   13        1.158871
   14        1.800642
   15        2.170306
   16        2.358675
   17        2.816329
   18        2.824014
   19        6.324280
   20        6.484169
   21        6.685158
   22        8.581092
 
  0.0000000E+00  0.2000000E+00  0.2000000E+00  0.1600000E-01
    1      -29.045395
    2      -29.044584
    3      -29.016452
    4      -16.681612
    5      -16.638123
    6      -16.584706
    7      -13.463288
    8      -12.703494
    9      -12.607037
   10        0.017812
   11        0.427556
   12        0.697107
   13        1.141884
   14        1.801424
   15        2.178672
   16        2.359087
   17        2.809877
   18        2.819725
   19        6.335327
   20        6.479720
   21        6.689090
   22        8.577671
 
  0.2000000E+00  0.2000000E+00  0.2000000E+00  0.1600000E-01
    1      -29.044338
    2      -29.043560
    3      -29.042912
    4      -16.680262
    5      -16.628905
    6      -16.628746
    7      -13.280912
    8      -12.612056
    9      -12.608377
   10       -0.156588
   11        0.397457
   12        0.399141
   13        1.082220
   14        1.083237
   15        1.468571
   16        2.677158
   17        2.680489
   18        2.942670
   19        6.682511
   20        6.780999
   21        6.781286
   22        9.519825
 
  0.4000000E+00  0.2000000E+00  0.2000000E+00  0.1600000E-01
    1      -29.085284
    2      -29.042709
    3      -29.041814
    4      -16.742456
    5      -16.633000
    6      -16.613514
    7      -13.016151
    8      -12.614238
    9      -12.407059
   10       -0.587048
   11       -0.124265
   12        0.193269
   13        0.334224
   14        0.696203
   15        1.383595
   16        2.574300
   17        2.660507
   18        2.979477
   19        6.842469
   20        7.462939
   21        7.500400
   22        9.665874
 
 -0.4000000E+00  0.2000000E+00  0.2000000E+00  0.1600000E-01
    1      -29.085291
    2      -29.042705
    3      -29.041813
    4      -16.742429
    5      -16.633015
    6      -16.613503
    7      -13.016108
    8      -12.614251
    9      -12.407067
   10       -0.592504
   11       -0.127754
   12        0.189951
   13        0.342203
   14        0.700259
   15        1.385918
   16        2.575595
   17        2.662017
   18        2.976965
   19        6.841847
   20        7.460092
   21        7.501357
   22        9.666972
 
 -0.2000000E+00  0.2000000E+00  0.2000000E+00  0.1600000E-01
    1      -29.044508
    2      -29.043723
    3      -29.042581
    4      -16.680190
    5      -16.628938
    6      -16.628747
    7      -13.280812
    8      -12.612104
    9      -12.608406
   10       -0.159797
   11        0.388232
   12        0.393754
   13        1.078653
   14        1.091162
   15        1.484997
   16        2.678708
   17        2.687210
   18        2.938506
   19        6.670718
   20        6.782126
   21        6.783594
   22        9.514273
 
  0.0000000E+00  0.4000000E+00  0.2000000E+00  0.1600000E-01
    1      -29.087712
    2      -29.042997
    3      -29.014736
    4      -16.768832
    5      -16.633096
    6      -16.578374
    7      -13.185975
    8      -12.649014
    9      -12.429810
   10       -0.571552
   11       -0.059665
   12        0.522416
   13        0.815987
   14        1.230755
   15        1.611093
   16        2.289615
   17        2.591087
   18        2.818504
   19        6.459821
   20        7.393427
   21        7.430220
   22        8.716475
 
  0.2000000E+00  0.4000000E+00  0.2000000E+00  0.1600000E-01
    1      -29.086697
    2      -29.041944
    3      -29.041181
    4      -16.742246
    5      -16.633002
    6      -16.613662
    7      -13.015259
    8      -12.613078
    9      -12.408817
   10       -0.589357
   11       -0.126909
   12        0.189617
   13        0.334885
   14        0.698761
   15        1.387125
   16        2.573039
   17        2.663532
   18        2.978586
   19        6.838685
   20        7.467408
   21        7.500216
   22        9.663820
 
  0.4000000E+00  0.4000000E+00  0.2000000E+00  0.1600000E-01
    1      -29.085066
    2      -29.083627
    3      -29.040036
    4      -16.703574
    5      -16.690308
    6      -16.607467
    7      -12.874395
    8      -12.405211
    9      -12.359469
   10       -0.793761
   11       -0.576179
   12       -0.385672
   13        0.111837
   14        0.201117
   15        0.971667
   16        2.715966
   17        2.756902
   18        3.511485
   19        7.543966
   20        7.582454
   21        7.849663
   22        9.771961
 
 -0.4000000E+00  0.4000000E+00  0.2000000E+00  0.1600000E-01
    1      -29.085125
    2      -29.083571
    3      -29.040033
    4      -16.703471
    5      -16.690379
    6      -16.607461
    7      -12.874421
    8      -12.405066
    9      -12.359598
   10       -0.798577
   11       -0.582125
   12       -0.376725
   13        0.109623
   14        0.202238
   15        0.975579
   16        2.718212
   17        2.756429
   18        3.510858
   19        7.544147
   20        7.580390
   21        7.849705
   22        9.769094
 
 -0.2000000E+00  0.4000000E+00  0.2000000E+00  0.1600000E-01
    1      -29.086700
    2      -29.042208
    3      -29.040916
    4      -16.742190
    5      -16.632994
    6      -16.613665
    7      -13.015259
    8      -12.613065
    9      -12.408865
   10       -0.592098
   11       -0.130956
   12        0.189973
   13        0.335211
   14        0.694803
   15        1.398073
   16        2.573603
   17        2.669703
   18        2.976784
   19        6.832417
   20        7.471108
   21        7.495735
   22        9.667269
 
  0.0000000E+00 -0.4000000E+00  0.2000000E+00  0.1600000E-01
    1      -29.087716
    2      -29.042994
    3      -29.014736
    4      -16.768810
    5      -16.633106
    6      -16.578375
    7      -13.185988
    8      -12.648932
    9      -12.429858
   10       -0.576015
   11       -0.063777
   12        0.532674
   13        0.814909
   14        1.232193
   15        1.611868
   16        2.289135
   17        2.591098
   18        2.817876
   19        6.458644
   20        7.392967
   21        7.429919
   22        8.715921
 
  0.2000000E+00 -0.4000000E+00  0.2000000E+00  0.1600000E-01
    1      -29.086705
    2      -29.041939
    3      -29.041180
    4      -16.742206
    5      -16.633021
    6      -16.613646
    7      -13.015223
    8      -12.613100
    9      -12.408826
   10       -0.596149
   11       -0.131301
   12        0.185666
   13        0.344881
   14        0.703690
   15        1.390103
   16        2.574711
   17        2.665609
   18        2.975203
   19        6.837880
   20        7.463785
   21        7.501497
   22        9.665152
 
  0.4000000E+00 -0.4000000E+00  0.2000000E+00  0.1600000E-01
    1      -29.085130
    2      -29.083567
    3      -29.040032
    4      -16.703452
    5      -16.690374
    6      -16.607459
    7      -12.874462
    8      -12.405048
    9      -12.359611
   10       -0.798775
   11       -0.582610
   12       -0.377320
   13        0.108375
   14        0.203134
   15        0.977540
   16        2.719302
   17        2.756316
   18        3.510631
   19        7.543272
   20        7.580499
   21        7.849621
   22        9.767610
 
 -0.4000000E+00 -0.4000000E+00  0.2000000E+00  0.1600000E-01
    1      -29.085070
    2      -29.083631
    3      -29.040029
    4      -16.703508
    5      -16.690289
    6      -16.607463
    7      -12.874471
    8      -12.405195
    9      -12.359503
   10       -0.794722
   11       -0.578420
   12       -0.388736
   13        0.106243
   14        0.205074
   15        0.981042
   16        2.720081
   17        2.756609
   18        3.510683
   19        7.539190
   20        7.583712
   21        7.849100
   22        9.766052
 
 -0.2000000E+00 -0.4000000E+00  0.2000000E+00  0.1600000E-01
    1      -29.086701
    2      -29.042206
    3      -29.040917
    4      -16.742178
    5      -16.632992
    6      -16.613661
    7      -13.015285
    8      -12.613072
    9      -12.408865
   10       -0.593082
   11       -0.131529
   12        0.189110
   13        0.336441
   14        0.696122
   15        1.398665
   16        2.574152
   17        2.670200
   18        2.975729
   19        6.832186
   20        7.470368
   21        7.496121
   22        9.667378
 
  0.0000000E+00 -0.2000000E+00  0.2000000E+00  0.1600000E-01
    1      -29.045643
    2      -29.044336
    3      -29.016452
    4      -16.681540
    5      -16.638178
    6      -16.584708
    7      -13.463232
    8      -12.703433
    9      -12.607132
   10        0.013661
   11        0.415012
   12        0.696488
   13        1.161798
   14        1.802728
   15        2.181327
   16        2.356955
   17        2.809447
   18        2.820473
   19        6.325950
   20        6.486659
   21        6.686270
   22        8.576778
 
  0.2000000E+00 -0.2000000E+00  0.2000000E+00  0.1600000E-01
    1      -29.044718
    2      -29.043369
    3      -29.042726
    4      -16.680160
    5      -16.628879
    6      -16.628812
    7      -13.280808
    8      -12.612129
    9      -12.608414
   10       -0.160635
   11        0.386932
   12        0.391369
   13        1.078462
   14        1.092856
   15        1.489136
   16        2.681675
   17        2.686725
   18        2.936911
   19        6.667849
   20        6.782386
   21        6.784088
   22        9.515572
 
  0.4000000E+00 -0.2000000E+00  0.2000000E+00  0.1600000E-01
    1      -29.085287
    2      -29.043001
    3      -29.041522
    4      -16.742372
    5      -16.632971
    6      -16.613523
    7      -13.016228
    8      -12.614158
    9      -12.407157
   10       -0.589695
   11       -0.129605
   12        0.194876
   13        0.332426
   14        0.689201
   15        1.399580
   16        2.575194
   17        2.669838
   18        2.977036
   19        6.832818
   20        7.469594
   21        7.493166
   22        9.670786
 
 -0.4000000E+00 -0.2000000E+00  0.2000000E+00  0.1600000E-01
    1      -29.085287
    2      -29.043003
    3      -29.041520
    4      -16.742373
    5      -16.632966
    6      -16.613523
    7      -13.016246
    8      -12.614157
    9      -12.407157
   10       -0.589333
   11       -0.129301
   12        0.194853
   13        0.331782
   14        0.689275
   15        1.399535
   16        2.575262
   17        2.669840
   18        2.976909
   19        6.832785
   20        7.469636
   21        7.493236
   22        9.670678
 
 -0.2000000E+00 -0.2000000E+00  0.2000000E+00  0.1600000E-01
    1      -29.044628
    2      -29.043558
    3      -29.042626
    4      -16.680169
    5      -16.628931
    6      -16.628744
    7      -13.280832
    8      -12.612109
    9      -12.608437
   10       -0.160387
   11        0.386817
   12        0.392195
   13        1.079656
   14        1.091420
   15        1.488580
   16        2.680075
   17        2.688127
   18        2.936731
   19        6.667882
   20        6.782855
   21        6.784002
   22        9.521751
 
  0.0000000E+00  0.0000000E+00  0.4000000E+00  0.1600000E-01
    1      -29.087745
    2      -29.017141
    3      -29.015731
    4      -16.801426
    5      -16.582795
    6      -16.582611
    7      -13.296682
    8      -12.740004
    9      -12.475500
   10       -0.542831
   11        0.823936
   12        0.826296
   13        1.139990
   14        1.349451
   15        1.365597
   16        1.864628
   17        3.003173
   18        3.014609
   19        5.775287
   20        7.385852
   21        7.394040
   22        8.118216
 
  0.2000000E+00  0.0000000E+00  0.4000000E+00  0.1600000E-01
    1      -29.086908
    2      -29.042380
    3      -29.016121
    4      -16.769198
    5      -16.632911
    6      -16.578224
    7      -13.188350
    8      -12.652235
    9      -12.424441
   10       -0.567746
   11       -0.057608
   12        0.518704
   13        0.818049
   14        1.232033
   15        1.611122
   16        2.276045
   17        2.600780
   18        2.819304
   19        6.456070
   20        7.393597
   21        7.430296
   22        8.717977
 
  0.4000000E+00  0.0000000E+00  0.4000000E+00  0.1600000E-01
    1      -29.085555
    2      -29.084905
    3      -29.014470
    4      -16.722189
    5      -16.706760
    6      -16.571121
    7      -13.115572
    8      -12.387256
    9      -12.331107
   10       -0.903560
   11       -0.610304
   12       -0.390434
   13        0.842266
   14        0.999772
   15        1.765604
   16        1.853803
   17        2.141804
   18        3.484009
   19        7.376983
   20        7.422229
   21        7.773426
   22        9.025604
 
 -0.4000000E+00  0.0000000E+00  0.4000000E+00  0.1600000E-01
    1      -29.085641
    2      -29.084819
    3      -29.014470
    4      -16.722125
    5      -16.706821
    6      -16.571121
    7      -13.115595
    8      -12.387057
    9      -12.331260
   10       -0.907168
   11       -0.613239
   12       -0.383506
   13        0.840932
   14        1.001299
   15        1.767383
   16        1.852134
   17        2.141743
   18        3.483766
   19        7.375361
   20        7.423256
   21        7.773684
   22        9.025123
 
 -0.2000000E+00  0.0000000E+00  0.4000000E+00  0.1600000E-01
    1      -29.086910
    2      -29.042378
    3      -29.016121
    4      -16.769187
    5      -16.632918
    6      -16.578225
    7      -13.188353
    8      -12.652190
    9      -12.424458
   10       -0.570871
   11       -0.059884
   12        0.525175
   13        0.817356
   14        1.232958
   15        1.611445
   16        2.275640
   17        2.600775
   18        2.819151
   19        6.455460
   20        7.393012
   21        7.430229
   22        8.717684
 
  0.0000000E+00  0.2000000E+00  0.4000000E+00  0.1600000E-01
    1      -29.086906
    2      -29.043774
    3      -29.014737
    4      -16.769205
    5      -16.632739
    6      -16.578370
    7      -13.187153
    8      -12.653211
    9      -12.424535
   10       -0.567100
   11       -0.058516
   12        0.518197
   13        0.815896
   14        1.233038
   15        1.611902
   16        2.287197
   17        2.587524
   18        2.818134
   19        6.461965
   20        7.392926
   21        7.430725
   22        8.716967
 
  0.2000000E+00  0.2000000E+00  0.4000000E+00  0.1600000E-01
    1      -29.085891
    2      -29.042672
    3      -29.041230
    4      -16.742579
    5      -16.632725
    6      -16.613585
    7      -13.017727
    8      -12.616161
    9      -12.403396
   10       -0.585386
   11       -0.124153
   12        0.192210
   13        0.332308
   14        0.695414
   15        1.383442
   16        2.575139
   17        2.659560
   18        2.979637
   19        6.839746
   20        7.466941
   21        7.500863
   22        9.664347
 
  0.4000000E+00  0.2000000E+00  0.4000000E+00  0.1600000E-01
    1      -29.084259
    2      -29.083629
    3      -29.040812
    4      -16.703741
    5      -16.690313
    6      -16.607219
    7      -12.879761
    8      -12.402941
    9      -12.356534
   10       -0.791609
   11       -0.573570
   12       -0.383764
   13        0.111768
   14        0.200396
   15        0.966553
   16        2.713204
   17        2.754257
   18        3.515662
   19        7.544778
   20        7.582542
   21        7.849264
   22        9.770366
 
 -0.4000000E+00  0.2000000E+00  0.4000000E+00  0.1600000E-01
    1      -29.084366
    2      -29.083527
    3      -29.040808
    4      -16.703654
    5      -16.690366
    6      -16.607219
    7      -12.879771
    8      -12.402827
    9      -12.356640
   10       -0.795892
   11       -0.579319
   12       -0.375969
   13        0.109385
   14        0.201615
   15        0.971069
   16        2.715519
   17        2.753588
   18        3.515077
   19        7.544080
   20        7.581233
   21        7.849205
   22        9.767887
 
 -0.2000000E+00  0.2000000E+00  0.4000000E+00  0.1600000E-01
    1      -29.085893
    2      -29.042878
    3      -29.041023
    4      -16.742525
    5      -16.632692
    6      -16.613615
    7      -13.017704
    8      -12.616179
    9      -12.403421
   10       -0.587764
   11       -0.128187
   12        0.192796
   13        0.331440
   14        0.690844
   15        1.395667
   16        2.575445
   17        2.666017
   18        2.977886
   19        6.833012
   20        7.471104
   21        7.495860
   22        9.668032
 
  0.0000000E+00  0.4000000E+00  0.4000000E+00  0.1600000E-01
    1      -29.086348
    2      -29.085519
    3      -29.013084
    4      -16.722138
    5      -16.706594
    6      -16.571290
    7      -13.113217
    8      -12.388411
    9      -12.331915
   10       -0.904627
   11       -0.610863
   12       -0.391840
   13        0.839844
   14        0.998435
   15        1.769623
   16        1.855975
   17        2.139128
   18        3.482629
   19        7.379863
   20        7.423064
   21        7.773681
   22        9.027088
 
  0.2000000E+00  0.4000000E+00  0.4000000E+00  0.1600000E-01
    1      -29.085056
    2      -29.084242
    3      -29.039416
    4      -16.703688
    5      -16.690124
    6      -16.607422
    7      -12.877664
    8      -12.403927
    9      -12.357392
   10       -0.792439
   11       -0.574485
   12       -0.385261
   13        0.109716
   14        0.200567
   15        0.969503
   16        2.714182
   17        2.755254
   18        3.514167
   19        7.543915
   20        7.583466
   21        7.849848
   22        9.769423
 
  0.4000000E+00  0.4000000E+00  0.4000000E+00  0.1600000E-01
    1      -29.082990
    2      -29.082182
    3      -29.081566
    4      -16.675417
    5      -16.663323
    6      -16.663028
    7      -12.496133
    8      -12.401783
    9      -12.398386
   10       -0.734577
   11       -0.496002
   12       -0.461958
   13       -0.459619
   14       -0.342621
   15       -0.338765
   16        3.450082
   17        3.452829
   18        3.608879
   19        7.941409
   20        7.987733
   21        7.988514
   22        9.680583
 
 -0.4000000E+00  0.4000000E+00  0.4000000E+00  0.1600000E-01
    1      -29.083092
    2      -29.082290
    3      -29.081357
    4      -16.675358
    5      -16.663356
    6      -16.663019
    7      -12.496148
    8      -12.401838
    9      -12.398334
   10       -0.737733
   11       -0.512028
   12       -0.466076
   13       -0.462574
   14       -0.336015
   15       -0.318453
   16        3.451530
   17        3.454246
   18        3.606849
   19        7.946489
   20        7.981494
   21        7.989303
   22        9.655479
 
 -0.2000000E+00  0.4000000E+00  0.4000000E+00  0.1600000E-01
    1      -29.085060
    2      -29.084246
    3      -29.039409
    4      -16.703638
    5      -16.690113
    6      -16.607426
    7      -12.877666
    8      -12.403953
    9      -12.357404
   10       -0.793262
   11       -0.576192
   12       -0.387929
   13        0.104664
   14        0.203966
   15        0.977660
   16        2.717261
   17        2.754700
   18        3.513720
   19        7.539826
   20        7.584652
   21        7.849412
   22        9.766342
 
  0.0000000E+00 -0.4000000E+00  0.4000000E+00  0.1600000E-01
    1      -29.086457
    2      -29.085410
    3      -29.013084
    4      -16.722028
    5      -16.706697
    6      -16.571290
    7      -13.113263
    8      -12.388062
    9      -12.332196
   10       -0.910058
   11       -0.615435
   12       -0.381236
   13        0.837749
   14        1.000844
   15        1.772428
   16        1.853480
   17        2.138989
   18        3.482200
   19        7.377257
   20        7.424713
   21        7.774083
   22        9.026309
 
  0.2000000E+00 -0.4000000E+00  0.4000000E+00  0.1600000E-01
    1      -29.085184
    2      -29.084118
    3      -29.039412
    4      -16.703552
    5      -16.690220
    6      -16.607419
    7      -12.877695
    8      -12.403757
    9      -12.357540