    5    5 1024    1
  0.1170210E+02  0.3882200E-09  0.3882200E-09  0.3882200E-09  0.5000000E-15
  1.000000000000000E-004
  CAR 
 unknown system                          
     36     63     22
 
  0.0000000E+00  0.0000000E+00  0.0000000E+00  0.8000000E-02
    1      -28.959157
    2      -28.951199
    3      -28.942179
    4      -16.525113
    5      -16.506923
    6      -16.501384
    7      -13.877300
    8      -12.789332
    9      -12.787697
   10        0.615814
   11        0.616291
   12        0.643851
   13        2.308791
   14        2.331697
   15        2.528701
   16        2.990454
   17        3.068554
   18        3.095326
   19        5.843026
   20        5.924982
   21        6.012327
   22        8.274861
 
  0.2000000E+00  0.0000000E+00  0.0000000E+00  0.1600000E-01
    1      -28.969265
    2      -28.957870
    3      -28.949709
    4      -16.598721
    5      -16.513962
    6      -16.500934
    7      -13.657574
    8      -12.784062
    9      -12.683186
   10        0.194191
   11        0.643547
   12        0.671437
   13        1.796296
   14        1.949386
   15        2.219789
   16        2.294103
   17        2.914859
   18        2.959294
   19        6.012532
   20        6.428225
   21        6.544074
   22        8.338092
 
  0.4000000E+00  0.0000000E+00  0.0000000E+00  0.1600000E-01
    1      -29.011378
    2      -28.956208
    3      -28.948030
    4      -16.731796
    5      -16.507252
    6      -16.491265
    7      -13.301399
    8      -12.771498
    9      -12.501113
   10       -0.556119
   11        0.795530
   12        0.811074
   13        1.035051
   14        1.309758
   15        1.450960
   16        1.800011
   17        2.778647
   18        2.851887
   19        6.089743
   20        7.347595
   21        7.502714
   22        8.332721
 
  0.0000000E+00  0.2000000E+00  0.0000000E+00  0.1600000E-01
    1      -28.978154
    2      -28.957527
    3      -28.941210
    4      -16.604594
    5      -16.510827
    6      -16.497146
    7      -13.656344
    8      -12.782244
    9      -12.685715
   10        0.191561
   11        0.636922
   12        0.659938
   13        1.812997
   14        1.935655
   15        2.195596
   16        2.290258
   17        2.915624
   18        2.988443
   19        5.951538
   20        6.489473
   21        6.569686
   22        8.310081
 
  0.2000000E+00  0.2000000E+00  0.0000000E+00  0.1600000E-01
    1      -28.977267
    2      -28.968096
    3      -28.956070
    4      -16.609725
    5      -16.553287
    6      -16.502805
    7      -13.473104
    8      -12.727957
    9      -12.627336
   10       -0.005403
   11        0.400229
   12        0.676390
   13        1.062624
   14        1.647753
   15        2.002004
   16        2.350011
   17        2.728480
   18        2.791671
   19        6.442677
   20        6.610759
   21        6.805224
   22        8.776000
 
  0.4000000E+00  0.2000000E+00  0.0000000E+00  0.1600000E-01
    1      -29.010564
    2      -28.975482
    3      -28.954534
    4      -16.698236
    5      -16.553426
    6      -16.493001
    7      -13.199089
    8      -12.682186
    9      -12.449672
   10       -0.574278
   11       -0.080898
   12        0.495873
   13        0.806414
   14        1.169995
   15        1.589255
   16        2.118143
   17        2.610840
   18        2.744940
   19        6.593483
   20        7.401296
   21        7.520828
   22        8.877881
 
 -0.4000000E+00  0.2000000E+00  0.0000000E+00  0.1600000E-01
    1      -29.010588
    2      -28.975459
    3      -28.954531
    4      -16.697623
    5      -16.553853
    6      -16.492930
    7      -13.199384
    8      -12.681567
    9      -12.450474
   10       -0.598775
   11       -0.104098
   12        0.553358
   13        0.800170
   14        1.180965
   15        1.599554
   16        2.110901
   17        2.611855
   18        2.740802
   19        6.582212
   20        7.386399
   21        7.532293
   22        8.875148
 
 -0.2000000E+00  0.2000000E+00  0.0000000E+00  0.1600000E-01
    1      -28.977412
    2      -28.967964
    3      -28.956054
    4      -16.607513
    5      -16.555255
    6      -16.502629
    7      -13.472916
    8      -12.727504
    9      -12.628813
   10       -0.030160
   11        0.330146
   12        0.675185
   13        1.181721
   14        1.661899
   15        2.018532
   16        2.317115
   17        2.719618
   18        2.814329
   19        6.378401
   20        6.630275
   21        6.817982
   22        8.769356
 
  0.0000000E+00  0.4000000E+00  0.0000000E+00  0.1600000E-01
    1      -29.020422
    2      -28.955864
    3      -28.939453
    4      -16.735182
    5      -16.503033
    6      -16.489828
    7      -13.297589
    8      -12.767114
    9      -12.507051
   10       -0.578982
   11        0.766581
   12        0.788604
   13        1.070074
   14        1.294180
   15        1.417571
   16        1.796515
   17        2.811075
   18        2.892234
   19        6.029570
   20        7.411835
   21        7.516313
   22        8.307395
 
  0.2000000E+00  0.4000000E+00  0.0000000E+00  0.1600000E-01
    1      -29.019608
    2      -28.966567
    3      -28.954481
    4      -16.701198
    5      -16.548601
    6      -16.493565
    7      -13.197703
    8      -12.675469
    9      -12.456101
   10       -0.594298
   11       -0.091637
   12        0.498544
   13        0.793473
   14        1.170323
   15        1.586691
   16        2.123485
   17        2.639887
   18        2.739104
   19        6.546650
   20        7.452083
   21        7.526203
   22        8.865992
 
  0.4000000E+00  0.4000000E+00  0.0000000E+00  0.1600000E-01
    1      -29.018387
    2      -29.008997
    3      -28.952996
    4      -16.652858
    5      -16.627600
    6      -16.484725
    7      -13.133273
    8      -12.420214
    9      -12.355646
   10       -0.901191
   11       -0.643719
   12       -0.362383
   13        0.795514
   14        0.937694
   15        1.705424
   16        1.843700
   17        2.166910
   18        3.406674
   19        7.434004
   20        7.500510
   21        7.833064
   22        9.069179
 
 -0.4000000E+00  0.4000000E+00  0.0000000E+00  0.1600000E-01
    1      -29.018443
    2      -29.008937
    3      -28.952996
    4      -16.650816
    5      -16.629503
    6      -16.484699
    7      -13.133795
    8      -12.416853
    9      -12.358724
   10       -0.928340
   11       -0.663292
   12       -0.311930
   13        0.784125
   14        0.951097
   15        1.722311
   16        1.829383
   17        2.168962
   18        3.402930
   19        7.413467
   20        7.508436
   21        7.839358
   22        9.065974
 
 -0.2000000E+00  0.4000000E+00  0.0000000E+00  0.1600000E-01
    1      -29.019623
    2      -28.966554
    3      -28.954477
    4      -16.700615
    5      -16.549001
    6      -16.493488
    7      -13.198016
    8      -12.674777
    9      -12.456959
   10       -0.619156
   11       -0.111873
   12        0.553151
   13        0.787696
   14        1.180853
   15        1.596507
   16        2.116475
   17        2.639634
   18        2.736789
   19        6.536094
   20        7.432295
   21        7.541637
   22        8.863762
 
  0.0000000E+00  0.0000000E+00  0.2000000E+00  0.1600000E-01
    1      -28.985435
    2      -28.950335
    3      -28.941155
    4      -16.609208
    5      -16.505176
    6      -16.497121
    7      -13.655570
    8      -12.782359
    9      -12.686151
   10        0.189338
   11        0.633452
   12        0.649093
   13        1.827906
   14        1.921430
   15        2.195570
   16        2.261302
   17        2.941881
   18        2.994624
   19        5.897096
   20        6.536126
   21        6.598448
   22        8.288157
 
  0.2000000E+00  0.0000000E+00  0.2000000E+00  0.1600000E-01
    1      -28.984515
    2      -28.967975
    3      -28.948972
    4      -16.612762
    5      -16.553776
    6      -16.498455
    7      -13.470961
    8      -12.729272
    9      -12.627828
   10       -0.001017
   11        0.396171
   12        0.665236
   13        1.049498
   14        1.651960
   15        2.033927
   16        2.335899
   17        2.730091
   18        2.763010
   19        6.451840
   20        6.626458
   21        6.815854
   22        8.757314
 
  0.4000000E+00  0.0000000E+00  0.2000000E+00  0.1600000E-01
    1      -29.010565
    2      -28.982717
    3      -28.947316
    4      -16.698610
    5      -16.555664
    6      -16.489739
    7      -13.193409
    8      -12.687036
    9      -12.450386
   10       -0.571729
   11       -0.083382
   12        0.504144
   13        0.788656
   14        1.164985
   15        1.587694
   16        2.146433
   17        2.566905
   18        2.752783
   19        6.625276
   20        7.396674
   21        7.520856
   22        8.875555
 
 -0.4000000E+00  0.0000000E+00  0.2000000E+00  0.1600000E-01
    1      -29.010604
    2      -28.982679
    3      -28.947315
    4      -16.697823
    5      -16.556159
    6      -16.489694
    7      -13.193752
    8      -12.686285
    9      -12.451457
   10       -0.601086
   11       -0.109498
   12        0.571727
   13        0.780867
   14        1.178184
   15        1.600513
   16        2.139754
   17        2.568115
   18        2.745398
   19        6.612184
   20        7.383195
   21        7.530349
   22        8.871369
 
 -0.2000000E+00  0.0000000E+00  0.2000000E+00  0.1600000E-01
    1      -28.984621
    2      -28.967872
    3      -28.948966
    4      -16.610116
    5      -16.555974
    6      -16.498346
    7      -13.470702
    8      -12.728744
    9      -12.629765
   10       -0.031381
   11        0.316056
   12        0.662115
   13        1.190906
   14        1.667966
   15        2.056377
   16        2.304187
   17        2.713420
   18        2.786340
   19        6.385079
   20        6.647549
   21        6.824001
   22        8.748717
 
  0.0000000E+00  0.2000000E+00  0.2000000E+00  0.1600000E-01
    1      -28.984760
    2      -28.976538
    3      -28.940207
    4      -16.616641
    5      -16.554398
    6      -16.493293
    7      -13.468090
    8      -12.729504
    9      -12.629517
   10        0.006644
   11        0.403622
   12        0.652917
   13        1.016073
   14        1.655615
   15        2.071985
   16        2.319403
   17        2.717681
   18        2.740326
   19        6.500665
   20        6.616500
   21        6.825071
   22        8.735845
 
  0.2000000E+00  0.2000000E+00  0.2000000E+00  0.1600000E-01
    1      -28.983681
    2      -28.975686
    3      -28.966607
    4      -16.614938
    5      -16.543159
    6      -16.542978
    7      -13.289314
    8      -12.637055
    9      -12.631098
   10       -0.152427
   11        0.372540
   12        0.384421
   13        0.987529
   14        0.999552
   15        1.387024
   16        2.566171
   17        2.590629
   18        2.892002
   19        6.807721
   20        6.888312
   21        6.899958
   22        9.619179
 
  0.4000000E+00  0.2000000E+00  0.2000000E+00  0.1600000E-01
    1      -29.009559
    2      -28.981780
    3      -28.973779
    4      -16.671915
    5      -16.559279
    6      -16.523888
    7      -13.026313
    8      -12.649847
    9      -12.427711
   10       -0.584959
   11       -0.123494
   12        0.150121
   13        0.314895
   14        0.696013
   15        1.314131
   16        2.510708
   17        2.544524
   18        2.925869
   19        6.981210
   20        7.482490
   21        7.587555
   22        9.759401
 
 -0.4000000E+00  0.2000000E+00  0.2000000E+00  0.1600000E-01
    1      -29.009659
    2      -28.981743
    3      -28.973723
    4      -16.670335
    5      -16.560206
    6      -16.523606
    7      -13.027343
    8      -12.650542
    9      -12.427692
   10       -0.630682
   11       -0.158721
   12        0.126571
   13        0.382659
   14        0.734799
   15        1.342022
   16        2.535095
   17        2.567363
   18        2.883914
   19        6.970388
   20        7.449959
   21        7.606024
   22        9.767244
 
 -0.2000000E+00  0.2000000E+00  0.2000000E+00  0.1600000E-01
    1      -28.983783
    2      -28.976018
    3      -28.966181
    4      -16.611411
    5      -16.545635
    6      -16.542461
    7      -13.290188
    8      -12.638173
    9      -12.631999
   10       -0.188358
   11        0.294638
   12        0.336399
   13        0.969884
   14        1.092626
   15        1.522533
   16        2.592135
   17        2.683291
   18        2.809907
   19        6.666573
   20        6.920609
   21        6.933090
   22        9.466243
 
  0.0000000E+00  0.4000000E+00  0.2000000E+00  0.1600000E-01
    1      -29.019610
    2      -28.982602
    3      -28.938492
    4      -16.702225
    5      -16.553826
    6      -16.486143
    7      -13.184393
    8      -12.686976
    9      -12.457228
   10       -0.585941
   11       -0.093566
   12        0.508254
   13        0.757952
   14        1.154756
   15        1.584566
   16        2.193382
   17        2.535038
   18        2.755760
   19        6.619511
   20        7.443782
   21        7.524893
   22        8.862008
 
  0.2000000E+00  0.4000000E+00  0.2000000E+00  0.1600000E-01
    1      -29.018600
    2      -28.981496
    3      -28.965090
    4      -16.674987
    5      -16.553622
    6      -16.525097
    7      -13.022727
    8      -12.643510
    9      -12.436629
   10       -0.594369
   11       -0.142600
   12        0.134470
   13        0.312554
   14        0.699908
   15        1.333380
   16        2.511031
   17        2.558181
   18        2.923379
   19        6.951327
   20        7.523075
   21        7.583007
   22        9.747337
 
  0.4000000E+00  0.4000000E+00  0.2000000E+00  0.1600000E-01
    1      -29.017074
    2      -29.007722
    3      -28.979492
    4      -16.635997
    5      -16.610393
    6      -16.522280
    7      -12.898625
    8      -12.432976
    9      -12.382127
   10       -0.791805
   11       -0.598905
   12       -0.347124
   13        0.088953
   14        0.160377
   15        0.976965
   16        2.623167
   17        2.699717
   18        3.440297
   19        7.603787
   20        7.650014
   21        7.904168
   22        9.789578
 
 -0.4000000E+00  0.4000000E+00  0.2000000E+00  0.1600000E-01
    1      -29.017143
    2      -29.007746
    3      -28.979403
    4      -16.633104
    5      -16.612174
    6      -16.522306
    7      -12.901447
    8      -12.431862
    9      -12.382268
   10       -0.822045
   11       -0.637240
   12       -0.301586
   13        0.071402
   14        0.174672
   15        1.014655
   16        2.660495
   17        2.699669
   18        3.427670
   19        7.564770
   20        7.660225
   21        7.912834
   22        9.731020
 
 -0.2000000E+00  0.4000000E+00  0.2000000E+00  0.1600000E-01
    1      -29.018617
    2      -28.981763
    3      -28.964825
    4      -16.673438
    5      -16.552109
    6      -16.526368
    7      -13.027496
    8      -12.639991
    9      -12.438544
   10       -0.614963
   11       -0.192405
   12        0.156677
   13        0.313909
   14        0.655547
   15        1.430899
   16        2.534759
   17        2.656954
   18        2.876148
   19        6.869219
   20        7.525928
   21        7.587569
   22        9.755422
 
  0.0000000E+00 -0.4000000E+00  0.2000000E+00  0.1600000E-01
    1      -29.019655
    2      -28.982559
    3      -28.938491
    4      -16.700949
    5      -16.554530
    6      -16.486125
    7      -13.184903
    8      -12.685816
    9      -12.459129
   10       -0.628549
   11       -0.124455
   12        0.600188
   13        0.745941
   14        1.173990
   15        1.604219
   16        2.187768
   17        2.535359
   18        2.742235
   19        6.602089
   20        7.428327
   21        7.533668
   22        8.854973
 
  0.2000000E+00 -0.4000000E+00  0.2000000E+00  0.1600000E-01
    1      -29.018698
    2      -28.981440
    3      -28.965058
    4      -16.672962
    5      -16.554748
    6      -16.524713
    7      -13.024117
    8      -12.644532
    9      -12.436663
   10       -0.651570
   11       -0.181902
   12        0.109703
   13        0.392198
   14        0.746565
   15        1.368461
   16        2.540937
   17        2.587523
   18        2.869334
   19        6.938276
   20        7.482444
   21        7.605874
   22        9.754266
 
  0.4000000E+00 -0.4000000E+00  0.2000000E+00  0.1600000E-01
    1      -29.017253
    2      -29.007644
    3      -28.979399
    4      -16.632801
    5      -16.611897
    6      -16.522382
    7      -12.902926
    8      -12.430443
    9      -12.383185
   10       -0.823860
   11       -0.641383
   12       -0.306343
   13        0.060376
   14        0.186323
   15        1.029137
   16        2.671886
   17        2.702223
   18        3.423641
   19        7.565965
   20        7.650010
   21        7.913446
   22        9.712182
 
 -0.4000000E+00 -0.4000000E+00  0.2000000E+00  0.1600000E-01
    1      -29.017156
    2      -29.007835
    3      -28.979317
    4      -16.633847
    5      -16.610000
    6      -16.522649
    7      -12.904507
    8      -12.429805
    9      -12.383302
   10       -0.799544
   11       -0.620686
   12       -0.380616
   13        0.037301
   14        0.210014
   15        1.057541
   16        2.695192
   17        2.702372
   18        3.421181
   19        7.538736
   20        7.668236
   21        7.907478
   22        9.675591
 
 -0.2000000E+00 -0.4000000E+00  0.2000000E+00  0.1600000E-01
    1      -29.018660
    2      -28.981702
    3      -28.964845
    4      -16.672739
    5      -16.552418
    6      -16.526294
    7      -13.027915
    8      -12.640478
    9      -12.438621
   10       -0.630821
   11       -0.201759
   12        0.152877
   13        0.326669
   14        0.676483
   15        1.440517
   16        2.544730
   17        2.664941
   18        2.857607
   19        6.865441
   20        7.531307
   21        7.577475
   22        9.740080
 
  0.0000000E+00 -0.2000000E+00  0.2000000E+00  0.1600000E-01
    1      -28.985080
    2      -28.976218
    3      -28.940204
    4      -16.612383
    5      -16.557728
    6      -16.493251
    7      -13.467640
    8      -12.728869
    9      -12.632738
   10       -0.038626
   11        0.293992
   12        0.645919
   13        1.220004
   14        1.677486
   15        2.110108
   16        2.287940
   17        2.699833
   18        2.748156
   19        6.404522
   20        6.661015
   21        6.823701
   22        8.722053
 
  0.2000000E+00 -0.2000000E+00  0.2000000E+00  0.1600000E-01
    1      -28.984105
    2      -28.975565
    3      -28.966316
    4      -16.610049
    5      -16.546877
    6      -16.541999
    7      -13.290514
    8      -12.638627
    9      -12.632448
   10       -0.197796
   11        0.275983
   12        0.326943
   13        0.980282
   14        1.108962
   15        1.553506
   16        2.616388
   17        2.687961
   18        2.783604
   19        6.655029
   20        6.907207
   21        6.940078
   22        9.415088
 
  0.4000000E+00 -0.2000000E+00  0.2000000E+00  0.1600000E-01
    1      -29.009581
    2      -28.982496
    3      -28.973065
    4      -16.669891
    5      -16.557014
    6      -16.525551
    7      -13.033883
    8      -12.643835
    9      -12.430933
   10       -0.604568
   11       -0.190422
   12        0.186935
   13        0.302587
   14        0.632436
   15        1.448245
   16        2.546245
   17        2.675549
   18        2.864434
   19        6.864640
   20        7.499036
   21        7.582653
   22        9.752783
 
 -0.4000000E+00 -0.2000000E+00  0.2000000E+00  0.1600000E-01
    1      -29.009603
    2      -28.982449
    3      -28.973092
    4      -16.669719
    5      -16.557074
    6      -16.525546
    7      -13.033975
    8      -12.643951
    9      -12.430968
   10       -0.608932
   11       -0.192946
   12        0.186069
   13        0.304707
   14        0.639360
   15        1.450818
   16        2.548911
   17        2.677390
   18        2.859603
   19        6.863627
   20        7.500581
   21        7.579768
   22        9.745143
 
 -0.2000000E+00 -0.2000000E+00  0.2000000E+00  0.1600000E-01
    1      -28.984239
    2      -28.975358
    3      -28.966391
    4      -16.609650
    5      -16.546885
    6      -16.542192
    7      -13.290602
    8      -12.638669
    9      -12.632726
   10       -0.201088
   11        0.272635
   12        0.319246
   13        0.986288
   14        1.113234
   15        1.565094
   16        2.626787
   17        2.686895
   18        2.774685
   19        6.652629
   20        6.904217
   21        6.938798
   22        9.399499
 
  0.0000000E+00  0.0000000E+00  0.4000000E+00  0.1600000E-01
    1      -29.027840
    2      -28.948596
    3      -28.939395
    4      -16.737560
    5      -16.498263
    6      -16.489873
    7      -13.295211
    8      -12.765250
    9      -12.509915
   10       -0.597451
   11        0.751845
   12        0.763855
   13        1.094802
   14        1.286850
   15        1.386430
   16        1.792415
   17        2.850398
   18        2.910566
   19        5.980322
   20        7.454694
   21        7.538570
   22        8.286602
 
  0.2000000E+00  0.0000000E+00  0.4000000E+00  0.1600000E-01
    1      -29.027019
    2      -28.966420
    3      -28.947291
    4      -16.703523
    5      -16.547475
    6      -16.490357
    7      -13.191292
    8      -12.676598
    9      -12.460170
   10       -0.608164
   11       -0.101858
   12        0.506837
   13        0.765604
   14        1.163352
   15        1.586452
   16        2.156365
   17        2.618068
   18        2.740428
   19        6.540613
   20        7.480403
   21        7.539952
   22        8.854825
 
  0.4000000E+00  0.0000000E+00  0.4000000E+00  0.1600000E-01
    1      -29.025728
    2      -29.009002
    3      -28.945697
    4      -16.655028
    5      -16.626597
    6      -16.481929
    7      -13.122741
    8      -12.427510
    9      -12.358245
   10       -0.907919
   11       -0.643328
   12       -0.364734
   13        0.776152
   14        0.929385
   15        1.714682
   16        1.843770
   17        2.154701
   18        3.415726
   19        7.436944
   20        7.521274
   21        7.833017
   22        9.086027
 
 -0.4000000E+00  0.0000000E+00  0.4000000E+00  0.1600000E-01
    1      -29.025766
    2      -29.008959
    3      -28.945696
    4      -16.652791
    5      -16.628635
    6      -16.481912
    7      -13.123418
    8      -12.423164
    9      -12.362257
   10       -0.939771
   11       -0.665963
   12       -0.305755
   13        0.762420
   14        0.945680
   15        1.735524
   16        1.827587
   17        2.156061
   18        3.410767
   19        7.417555
   20        7.526595
   21        7.839918
   22        9.081257
 
 -0.2000000E+00  0.0000000E+00  0.4000000E+00  0.1600000E-01
    1      -29.027036
    2      -28.966404
    3      -28.947289
    4      -16.702801
    5      -16.547905
    6      -16.490306
    7      -13.191674
    8      -12.675698
    9      -12.461354
   10       -0.638117
   11       -0.122465
   12        0.568999
   13        0.758652
   14        1.175702
   15        1.598405
   16        2.149937
   17        2.617861
   18        2.735690
   19        6.528842
   20        7.460766
   21        7.553962
   22        8.851527
 
  0.0000000E+00  0.2000000E+00  0.4000000E+00  0.1600000E-01
    1      -29.027018
    2      -28.975255
    3      -28.938487
    4      -16.704172
    5      -16.550432
    6      -16.486231
    7      -13.183660
    8      -12.683248
    9      -12.460593
   10       -0.602309
   11       -0.101628
   12        0.508538
   13        0.747698
   14        1.153040
   15        1.585909
   16        2.197853
   17        2.556745
   18        2.749673
   19        6.581619
   20        7.477565
   21        7.537795
   22        8.853224
 
  0.2000000E+00  0.2000000E+00  0.4000000E+00  0.1600000E-01
    1      -29.026001
    2      -28.974182
    3      -28.965050
    4      -16.676881
    5      -16.549730
    6      -16.525802
    7      -13.019589
    8      -12.640572
    9      -12.441956
   10       -0.604367
   11       -0.155653
   12        0.116481
   13        0.316570
   14        0.710985
   15        1.341788
   16        2.511961
   17        2.559821
   18        2.921826
   19        6.934303
   20        7.547590
   21        7.586168
   22        9.739187
 
  0.4000000E+00  0.2000000E+00  0.4000000E+00  0.1600000E-01
    1      -29.024412
    2      -29.007725
    3      -28.972179
    4      -16.637789
    5      -16.609071
    6      -16.520757
    7      -12.889782
    8      -12.438498
    9      -12.384999
   10       -0.796699
   11       -0.600813
   12       -0.348630
   13        0.073625
   14        0.158333
   15        0.987200
   16        2.621118
   17        2.698159
   18        3.446146
   19        7.597237
   20        7.660022
   21        7.906093
   22        9.782160
 
 -0.4000000E+00  0.2000000E+00  0.4000000E+00  0.1600000E-01
    1      -29.024462
    2      -29.007737
    3      -28.972120
    4      -16.634892
    5      -16.610990
    6      -16.520751
    7      -12.892387
    8      -12.437205
    9      -12.385346
   10       -0.831030
   11       -0.641994
   12       -0.291233
   13        0.060180
   14        0.169012
   15        1.019417
   16        2.658003
   17        2.695167
   18        3.433788
   19        7.562090
   20        7.668606
   21        7.915286
   22        9.725960
 
 -0.2000000E+00  0.2000000E+00  0.4000000E+00  0.1600000E-01
    1      -29.026023
    2      -28.974568
    3      -28.964659
    4      -16.675342
    5      -16.548382
    6      -16.527068
    7      -13.023603
    8      -12.637901
    9      -12.443472
   10       -0.629900
   11       -0.201202
   12        0.133879
   13        0.326072
   14        0.677804
   15        1.427739
   16        2.533592
   17        2.651599
   18        2.873741
   19        6.863333
   20        7.543980
   21        7.594958
   22        9.746699
 
  0.0000000E+00  0.4000000E+00  0.4000000E+00  0.1600000E-01
    1      -29.026014
    2      -29.017655
    3      -28.936837
    4      -16.659017
    5      -16.624425
    6      -16.478680
    7      -13.108198
    8      -12.436825
    9      -12.362002
   10       -0.913006
   11       -0.637876
   12       -0.376842
   13        0.760334
   14        0.911233
   15        1.725503
   16        1.847606
   17        2.140746
   18        3.424899
   19        7.474479
   20        7.516061
   21        7.830171
   22        9.107656
 
  0.2000000E+00  0.4000000E+00  0.4000000E+00  0.1600000E-01
    1      -29.024694
    2      -29.016389
    3      -28.963285
    4      -16.641269
    5      -16.606124
    6      -16.519174
    7      -12.877767
    8      -12.443569
    9      -12.391198
   10       -0.800828
   11       -0.596321
   12       -0.362534
   13        0.058341
   14        0.151863
   15        1.004299
   16        2.622444
   17        2.698873
   18        3.450214
   19        7.599486
   20        7.663334
   21        7.905993
   22        9.767490
 
  0.4000000E+00  0.4000000E+00  0.4000000E+00  0.1600000E-01
    1      -29.022598
    2      -29.014534
    3      -29.005430
    4      -16.613118
    5      -16.582192
    6      -16.575380
    7      -12.508413
    8      -12.440853
    9      -12.425830
   10       -0.773431
   11       -0.493888
   12       -0.480553
   13       -0.471209
   14       -0.320759
   15       -0.285433
   16        3.331737
   17        3.348970
   18        3.558552
   19        7.947410
   20        8.046918
   21        8.056627
   22        9.738726
 
 -0.4000000E+00  0.4000000E+00  0.4000000E+00  0.1600000E-01
    1      -29.022657
    2      -29.014744
    3      -29.005166
    4      -16.611107
    5      -16.583429
    6      -16.575243
    7      -12.521113
    8      -12.440934
    9      -12.414562
   10       -0.791565
   11       -0.585607
   12       -0.512390
   13       -0.471135
   14       -0.285238
   15       -0.171565
   16        3.356765
   17        3.389362
   18        3.512903
   19        7.938080
   20        8.045550
   21        8.067902
   22        9.582937
 
 -0.2000000E+00  0.4000000E+00  0.4000000E+00  0.1600000E-01
    1      -29.024720
    2      -29.016449
    3      -28.963215
    4      -16.639779
    5      -16.605866
    6      -16.519426
    7      -12.881981
    8      -12.441231
    9      -12.391903
   10       -0.805267
   11       -0.613866
   12       -0.387934
   13        0.019617
   14        0.188292
   15        1.063898
   16        2.676512
   17        2.699344
   18        3.437164
   19        7.547746
   20        7.679023
   21        7.911369
   22        9.686231
 
  0.0000000E+00 -0.4000000E+00  0.4000000E+00  0.1600000E-01
    1      -29.026133
    2      -29.017530
    3      -28.936836
    4      -16.655981
    5      -16.627092
    6      -16.478674
    7      -13.109312
    8      -12.429713
    9      -12.368680
   10       -0.957254
   11       -0.670587
   12       -0.293288
   13        0.738616
   14        0.936994
   15        1.757257
   16        1.826200
   17        2.140629
   18        3.416604
   19        7.441431
   20        7.530611
   21        7.838919
   22        9.099015
 
  0.2000000E+00 -0.4000000E+00  0.4000000E+00  0.1600000E-01
    1      -29.024857
    2      -29.016265
    3      -28.963245
    4      -16.637851
    5      -16.608395
    6      -16.519122
    7      -12.880996
    8      -12.441250
    9      -12.392376