    5    5 1024    1
  0.1170210E+02  0.3882200E-09  0.3882200E-09  0.3882200E-09  0.5000000E-15
  1.000000000000000E-004
  CAR 
 unknown system                          
     36     63     22
 
  0.0000000E+00  0.0000000E+00  0.0000000E+00  0.8000000E-02
    1      -28.960479
    2      -28.952411
    3      -28.943364
    4      -16.529486
    5      -16.512815
    6      -16.507661
    7      -13.876160
    8      -12.786589
    9      -12.785668
   10        0.619262
   11        0.620449
   12        0.646145
   13        2.321363
   14        2.343017
   15        2.531888
   16        3.000174
   17        3.076392
   18        3.103290
   19        5.834938
   20        5.917668
   21        6.002965
   22        8.269002
 
  0.2000000E+00  0.0000000E+00  0.0000000E+00  0.1600000E-01
    1      -28.970374
    2      -28.959212
    3      -28.950965
    4      -16.603951
    5      -16.518986
    6      -16.507003
    7      -13.656650
    8      -12.781951
    9      -12.680213
   10        0.197654
   11        0.647501
   12        0.673866
   13        1.805333
   14        1.956074
   15        2.223858
   16        2.298044
   17        2.920780
   18        2.965971
   19        6.005874
   20        6.426821
   21        6.538844
   22        8.333027
 
  0.4000000E+00  0.0000000E+00  0.0000000E+00  0.1600000E-01
    1      -29.012485
    2      -28.957542
    3      -28.949278
    4      -16.736473
    5      -16.512320
    6      -16.497619
    7      -13.300941
    8      -12.768665
    9      -12.498060
   10       -0.552442
   11        0.798742
   12        0.814352
   13        1.037767
   14        1.313381
   15        1.451882
   16        1.802819
   17        2.784167
   18        2.858229
   19        6.084094
   20        7.350286
   21        7.499800
   22        8.328247
 
  0.0000000E+00  0.2000000E+00  0.0000000E+00  0.1600000E-01
    1      -28.979331
    2      -28.958883
    3      -28.942381
    4      -16.609383
    5      -16.516080
    6      -16.503486
    7      -13.655411
    8      -12.779836
    9      -12.683007
   10        0.195097
   11        0.640424
   12        0.662847
   13        1.821295
   14        1.943415
   15        2.200231
   16        2.293569
   17        2.922084
   18        2.995115
   19        5.944951
   20        6.487380
   21        6.564508
   22        8.305099
 
  0.2000000E+00  0.2000000E+00  0.0000000E+00  0.1600000E-01
    1      -28.978437
    2      -28.969217
    3      -28.957474
    4      -16.614544
    5      -16.559110
    6      -16.508363
    7      -13.472316
    8      -12.725798
    9      -12.624176
   10       -0.002663
   11        0.403157
   12        0.679757
   13        1.067982
   14        1.654679
   15        2.005697
   16        2.351916
   17        2.735369
   18        2.796065
   19        6.439650
   20        6.608278
   21        6.801870
   22        8.771998
 
  0.4000000E+00  0.2000000E+00  0.0000000E+00  0.1600000E-01
    1      -29.011669
    2      -28.976664
    3      -28.955921
    4      -16.703018
    5      -16.558816
    6      -16.498849
    7      -13.198702
    8      -12.679196
    9      -12.446631
   10       -0.571043
   11       -0.077715
   12        0.498287
   13        0.808499
   14        1.173628
   15        1.590604
   16        2.120987
   17        2.613735
   18        2.750769
   19        6.591110
   20        7.402293
   21        7.518490
   22        8.874938
 
 -0.4000000E+00  0.2000000E+00  0.0000000E+00  0.1600000E-01
    1      -29.011693
    2      -28.976642
    3      -28.955919
    4      -16.702440
    5      -16.559220
    6      -16.498788
    7      -13.198981
    8      -12.678604
    9      -12.447370
   10       -0.594644
   11       -0.100026
   12        0.553661
   13        0.802461
   14        1.184003
   15        1.600227
   16        2.114129
   17        2.614750
   18        2.746836
   19        6.580471
   20        7.388162
   21        7.529277
   22        8.872354
 
 -0.2000000E+00  0.2000000E+00  0.0000000E+00  0.1600000E-01
    1      -28.978576
    2      -28.969090
    3      -28.957460
    4      -16.612419
    5      -16.561002
    6      -16.508210
    7      -13.472138
    8      -12.725363
    9      -12.625538
   10       -0.026337
   11        0.335817
   12        0.678420
   13        1.182196
   14        1.667901
   15        2.021240
   16        2.321271
   17        2.726459
   18        2.817860
   19        6.378289
   20        6.627640
   21        6.813259
   22        8.765764
 
  0.0000000E+00  0.4000000E+00  0.0000000E+00  0.1600000E-01
    1      -29.021588
    2      -28.957217
    3      -28.940624
    4      -16.739572
    5      -16.508411
    6      -16.496284
    7      -13.297133
    8      -12.764140
    9      -12.504073
   10       -0.575326
   11        0.770050
   12        0.791971
   13        1.072836
   14        1.298236
   15        1.418595
   16        1.799752
   17        2.817118
   18        2.898420
   19        6.024232
   20        7.413403
   21        7.513347
   22        8.302947
 
  0.2000000E+00  0.4000000E+00  0.0000000E+00  0.1600000E-01
    1      -29.020771
    2      -28.967682
    3      -28.955877
    4      -16.705730
    5      -16.554392
    6      -16.499333
    7      -13.197309
    8      -12.672437
    9      -12.453075
   10       -0.591165
   11       -0.088387
   12        0.501519
   13        0.795679
   14        1.173660
   15        1.588030
   16        2.126679
   17        2.643059
   18        2.744933
   19        6.544762
   20        7.452153
   21        7.523769
   22        8.863101
 
  0.4000000E+00  0.4000000E+00  0.0000000E+00  0.1600000E-01
    1      -29.019537
    2      -29.010118
    3      -28.954378
    4      -16.657522
    5      -16.632989
    6      -16.490615
    7      -13.132770
    8      -12.416911
    9      -12.352774
   10       -0.899910
   11       -0.640112
   12       -0.360471
   13        0.798414
   14        0.941742
   15        1.706707
   16        1.843872
   17        2.168069
   18        3.412918
   19        7.433391
   20        7.499745
   21        7.831730
   22        9.069587
 
 -0.4000000E+00  0.4000000E+00  0.0000000E+00  0.1600000E-01
    1      -29.019591
    2      -29.010061
    3      -28.954377
    4      -16.655544
    5      -16.634838
    6      -16.490593
    7      -13.133260
    8      -12.413744
    9      -12.355660
   10       -0.926114
   11       -0.658914
   12       -0.311891
   13        0.787516
   14        0.954551
   15        1.722802
   16        1.830115
   17        2.169993
   18        3.409389
   19        7.414045
   20        7.507218
   21        7.837629
   22        9.066499
 
 -0.2000000E+00  0.4000000E+00  0.0000000E+00  0.1600000E-01
    1      -29.020787
    2      -28.967669
    3      -28.955874
    4      -16.705178
    5      -16.554772
    6      -16.499267
    7      -13.197604
    8      -12.671778
    9      -12.453867
   10       -0.615094
   11       -0.107860
   12        0.554125
   13        0.790069
   14        1.183636
   15        1.597207
   16        2.120049
   17        2.642954
   18        2.742615
   19        6.534778
   20        7.433261
   21        7.538471
   22        8.860973
 
  0.0000000E+00  0.0000000E+00  0.2000000E+00  0.1600000E-01
    1      -28.986784
    2      -28.951529
    3      -28.942326
    4      -16.613481
    5      -16.511009
    6      -16.503457
    7      -13.654378
    8      -12.778712
    9      -12.684864
   10        0.192546
   11        0.636853
   12        0.651804
   13        1.836541
   14        1.928707
   15        2.200423
   16        2.263775
   17        2.949919
   18        3.002189
   19        5.889958
   20        6.533900
   21        6.593503
   22        8.282918
 
  0.2000000E+00  0.0000000E+00  0.2000000E+00  0.1600000E-01
    1      -28.985853
    2      -28.969118
    3      -28.950195
    4      -16.617219
    5      -16.559545
    6      -16.504475
    7      -13.469828
    8      -12.726342
    9      -12.625720
   10        0.001135
   11        0.398956
   12        0.668310
   13        1.054543
   14        1.659100
   15        2.040066
   16        2.338849
   17        2.734908
   18        2.767480
   19        6.449232
   20        6.623806
   21        6.812500
   22        8.752969
 
  0.4000000E+00  0.0000000E+00  0.2000000E+00  0.1600000E-01
    1      -29.011667
    2      -28.984081
    3      -28.948534
    4      -16.703352
    5      -16.560762
    6      -16.495967
    7      -13.192287
    8      -12.684666
    9      -12.447383
   10       -0.568619
   11       -0.081089
   12        0.505627
   13        0.790854
   14        1.169550
   15        1.590755
   16        2.151125
   17        2.569141
   18        2.756596
   19        6.623132
   20        7.397821
   21        7.518494
   22        8.872424
 
 -0.4000000E+00  0.0000000E+00  0.2000000E+00  0.1600000E-01
    1      -29.011706
    2      -28.984044
    3      -28.948533
    4      -16.702622
    5      -16.561224
    6      -16.495927
    7      -13.192594
    8      -12.683961
    9      -12.448372
   10       -0.597165
   11       -0.106229
   12        0.571042
   13        0.783305
   14        1.182109
   15        1.602700
   16        2.144779
   17        2.570295
   18        2.749659
   19        6.610765
   20        7.385058
   21        7.527299
   22        8.868426
 
 -0.2000000E+00  0.0000000E+00  0.2000000E+00  0.1600000E-01
    1      -28.985955
    2      -28.969019
    3      -28.950189
    4      -16.614714
    5      -16.561640
    6      -16.504378
    7      -13.469560
    8      -12.725835
    9      -12.627526
   10       -0.028089
   11        0.321402
   12        0.665193
   13        1.190758
   14        1.674170
   15        2.061302
   16        2.309278
   17        2.718937
   18        2.789668
   19        6.385200
   20        6.644959
   21        6.819242
   22        8.744811
 
  0.0000000E+00  0.2000000E+00  0.2000000E+00  0.1600000E-01
    1      -28.986080
    2      -28.977760
    3      -28.941367
    4      -16.620822
    5      -16.560136
    6      -16.499654
    7      -13.467013
    8      -12.726222
    9      -12.627715
   10        0.008677
   11        0.406741
   12        0.655947
   13        1.021017
   14        1.663118
   15        2.079229
   16        2.323156
   17        2.721730
   18        2.743883
   19        6.497701
   20        6.613741
   21        6.821954
   22        8.731417
 
  0.2000000E+00  0.2000000E+00  0.2000000E+00  0.1600000E-01
    1      -28.984998
    2      -28.976886
    3      -28.967780
    4      -16.619215
    5      -16.549045
    6      -16.548878
    7      -13.288358
    8      -12.635111
    9      -12.627907
   10       -0.151516
   11        0.375024
   12        0.387347
   13        0.992442
   14        1.004440
   15        1.391675
   16        2.571436
   17        2.597281
   18        2.895222
   19        6.804397
   20        6.886214
   21        6.897548
   22        9.612223
 
  0.4000000E+00  0.2000000E+00  0.2000000E+00  0.1600000E-01
    1      -29.010660
    2      -28.983118
    3      -28.975011
    4      -16.676678
    5      -16.564212
    6      -16.530086
    7      -13.025724
    8      -12.647054
    9      -12.424753
   10       -0.582335
   11       -0.121808
   12        0.153867
   13        0.316956
   14        0.696998
   15        1.316731
   16        2.515977
   17        2.550036
   18        2.929269
   19        6.978688
   20        7.482829
   21        7.585888
   22        9.757749
 
 -0.4000000E+00  0.2000000E+00  0.2000000E+00  0.1600000E-01
    1      -29.010756
    2      -28.983081
    3      -28.974958
    4      -16.675206
    5      -16.565082
    6      -16.529823
    7      -13.026639
    8      -12.647698
    9      -12.424749
   10       -0.626519
   11       -0.155658
   12        0.130970
   13        0.382459
   14        0.734181
   15        1.343404
   16        2.538767
   17        2.571626
   18        2.889733
   19        6.968479
   20        7.451875
   21        7.603251
   22        9.765543
 
 -0.2000000E+00  0.2000000E+00  0.2000000E+00  0.1600000E-01
    1      -28.985097
    2      -28.977197
    3      -28.967378
    4      -16.615860
    5      -16.551422
    6      -16.548407
    7      -13.289104
    8      -12.636148
    9      -12.628764
   10       -0.185635
   11        0.299570
   12        0.341066
   13        0.974899
   14        1.093145
   15        1.522901
   16        2.595819
   17        2.684815
   18        2.818138
   19        6.669509
   20        6.917344
   21        6.928630
   22        9.468213
 
  0.0000000E+00  0.4000000E+00  0.2000000E+00  0.1600000E-01
    1      -29.020773
    2      -28.983963
    3      -28.939652
    4      -16.706651
    5      -16.559121
    6      -16.492582
    7      -13.183438
    8      -12.684345
    9      -12.454280
   10       -0.582821
   11       -0.091516
   12        0.509650
   13        0.760893
   14        1.159836
   15        1.588163
   16        2.199259
   17        2.536948
   18        2.758514
   19        6.617461
   20        7.444210
   21        7.522447
   22        8.858663
 
  0.2000000E+00  0.4000000E+00  0.2000000E+00  0.1600000E-01
    1      -29.019761
    2      -28.982850
    3      -28.966244
    4      -16.679473
    5      -16.559012
    6      -16.531184
    7      -13.022138
    8      -12.640760
    9      -12.433574
   10       -0.591839
   11       -0.140792
   12        0.137980
   13        0.314704
   14        0.701104
   15        1.336634
   16        2.515491
   17        2.564453
   18        2.926675
   19        6.949044
   20        7.522705
   21        7.581415
   22        9.745819
 
  0.4000000E+00  0.4000000E+00  0.2000000E+00  0.1600000E-01
    1      -29.018225
    2      -29.008837
    3      -28.980873
    4      -16.640540
    5      -16.615853
    6      -16.528079
    7      -12.898166
    8      -12.429893
    9      -12.379162
   10       -0.789985
   11       -0.595834
   12       -0.345505
   13        0.090555
   14        0.162812
   15        0.977270
   16        2.628017
   17        2.702966
   18        3.446265
   19        7.603328
   20        7.649419
   21        7.903165
   22        9.787627
 
 -0.4000000E+00  0.4000000E+00  0.2000000E+00  0.1600000E-01
    1      -29.018291
    2      -29.008860
    3      -28.980789
    4      -16.637769
    5      -16.617584
    6      -16.528107
    7      -12.900729
    8      -12.428827
    9      -12.379367
   10       -0.819356
   11       -0.632611
   12       -0.301590
   13        0.073639
   14        0.176280
   15        1.013906
   16        2.663202
   17        2.702646
   18        3.434496
   19        7.566633
   20        7.658740
   21        7.911211
   22        9.732641
 
 -0.2000000E+00  0.4000000E+00  0.2000000E+00  0.1600000E-01
    1      -29.019778
    2      -28.983099
    3      -28.965998
    4      -16.678019
    5      -16.557569
    6      -16.532415
    7      -13.026447
    8      -12.637599
    9      -12.435346
   10       -0.611597
   11       -0.188028
   12        0.158443
   13        0.315325
   14        0.658436
   15        1.431445
   16        2.537304
   17        2.657760
   18        2.882808
   19        6.870692
   20        7.525992
   21        7.584780
   22        9.755902
 
  0.0000000E+00 -0.4000000E+00  0.2000000E+00  0.1600000E-01
    1      -29.020817
    2      -28.983922
    3      -28.939651
    4      -16.705472
    5      -16.559776
    6      -16.492567
    7      -13.183894
    8      -12.683243
    9      -12.456050
   10       -0.624837
   11       -0.121615
   12        0.599756
   13        0.749186
   14        1.178341
   15        1.606582
   16        2.193858
   17        2.537236
   18        2.745721
   19        6.600807
   20        7.429485
   21        7.530478
   22        8.851833
 
  0.2000000E+00 -0.4000000E+00  0.2000000E+00  0.1600000E-01
    1      -29.019857
    2      -28.982796
    3      -28.966215
    4      -16.677585
    5      -16.560068
    6      -16.530827
    7      -13.023370
    8      -12.641714
    9      -12.433627
   10       -0.647684
   11       -0.178669
   12        0.113566
   13        0.392185
   14        0.746295
   15        1.370308
   16        2.543747
   17        2.592482
   18        2.875269
   19        6.936635
   20        7.483750
   21        7.603028
   22        9.752893
 
  0.4000000E+00 -0.4000000E+00  0.2000000E+00  0.1600000E-01
    1      -29.018398
    2      -29.008762
    3      -28.980783
    4      -16.637477
    5      -16.617329
    6      -16.528175
    7      -12.902084
    8      -12.427546
    9      -12.380210
   10       -0.821189
   11       -0.636857
   12       -0.306427
   13        0.062586
   14        0.187804
   15        1.028574
   16        2.675079
   17        2.704308
   18        3.430675
   19        7.567621
   20        7.648880
   21        7.911731
   22        9.714093
 
 -0.4000000E+00 -0.4000000E+00  0.2000000E+00  0.1600000E-01
    1      -29.018305
    2      -29.008945
    3      -28.980706
    4      -16.638525
    5      -16.615484
    6      -16.528426
    7      -12.903494
    8      -12.427084
    9      -12.380250
   10       -0.797615
   11       -0.616996
   12       -0.378194
   13        0.040057
   14        0.210814
   15        1.056345
   16        2.696927
   17        2.704434
   18        3.428474
   19        7.541160
   20        7.666713
   21        7.905999
   22        9.679800
 
 -0.2000000E+00 -0.4000000E+00  0.2000000E+00  0.1600000E-01
    1      -29.019820
    2      -28.983040
    3      -28.966017
    4      -16.677380
    5      -16.557848
    6      -16.532342
    7      -13.026796
    8      -12.638067
    9      -12.435432
   10       -0.627651
   11       -0.197386
   12        0.154473
   13        0.328594
   14        0.678897
   15        1.440758
   16        2.546950
   17        2.665516
   18        2.865041
   19        6.867032
   20        7.531108
   21        7.574852
   22        9.742649
 
  0.0000000E+00 -0.2000000E+00  0.2000000E+00  0.1600000E-01
    1      -28.986389
    2      -28.977451
    3      -28.941365
    4      -16.616816
    5      -16.563289
    6      -16.499617
    7      -13.466545
    8      -12.725583
    9      -12.630749
   10       -0.035515
   11        0.299035
   12        0.649139
   13        1.219735
   14        1.683988
   15        2.115664
   16        2.293610
   17        2.704805
   18        2.751301
   19        6.404238
   20        6.658333
   21        6.819062
   22        8.718126
 
  0.2000000E+00 -0.2000000E+00  0.2000000E+00  0.1600000E-01
    1      -28.985408
    2      -28.976760
    3      -28.967508
    4      -16.614595
    5      -16.552565
    6      -16.547984
    7      -13.289381
    8      -12.636596
    9      -12.629177
   10       -0.194945
   11        0.280913
   12        0.330974
   13        0.984873
   14        1.109607
   15        1.553699
   16        2.620058
   17        2.689007
   18        2.792915
   19        6.657678
   20        6.904107
   21        6.935612
   22        9.418910
 
  0.4000000E+00 -0.2000000E+00  0.2000000E+00  0.1600000E-01
    1      -29.010682
    2      -28.983799
    3      -28.974331
    4      -16.674769
    5      -16.562051
    6      -16.531697
    7      -13.032605
    8      -12.641615
    9      -12.427749
   10       -0.601079
   11       -0.185897
   12        0.188515
   13        0.303406
   14        0.634779
   15        1.448735
   16        2.548687
   17        2.675292
   18        2.872200
   19        6.866210
   20        7.499524
   21        7.579866
   22        9.756283
 
 -0.4000000E+00 -0.2000000E+00  0.2000000E+00  0.1600000E-01
    1      -29.010703
    2      -28.983754
    3      -28.974356
    4      -16.674617
    5      -16.562100
    6      -16.531692
    7      -13.032668
    8      -12.641733
    9      -12.427789
   10       -0.605479
   11       -0.188434
   12        0.187698
   13        0.305688
   14        0.641456
   15        1.451166
   16        2.551272
   17        2.677039
   18        2.867632
   19        6.865251
   20        7.500994
   21        7.577029
   22        9.749524
 
 -0.2000000E+00 -0.2000000E+00  0.2000000E+00  0.1600000E-01
    1      -28.985534
    2      -28.976565
    3      -28.967578
    4      -16.614243
    5      -16.552561
    6      -16.548159
    7      -13.289435
    8      -12.636652
    9      -12.629437
   10       -0.198169
   11        0.277770
   12        0.322910
   13        0.990713
   14        1.114083
   15        1.564825
   16        2.631070
   17        2.687258
   18        2.784367
   19        6.655241
   20        6.901202
   21        6.934296
   22        9.404107
 
  0.0000000E+00  0.0000000E+00  0.4000000E+00  0.1600000E-01
    1      -29.029189
    2      -28.949788
    3      -28.940562
    4      -16.741548
    5      -16.504174
    6      -16.496324
    7      -13.293881
    8      -12.761203
    9      -12.508706
   10       -0.595070
   11        0.755299
   12        0.766972
   13        1.098628
   14        1.290005
   15        1.386451
   16        1.797003
   17        2.858591
   18        2.917879
   19        5.974315
   20        7.455781
   21        7.535593
   22        8.281866
 
  0.2000000E+00  0.0000000E+00  0.4000000E+00  0.1600000E-01
    1      -29.028365
    2      -28.967551
    3      -28.948508
    4      -16.707667
    5      -16.553394
    6      -16.496502
    7      -13.189727
    8      -12.672883
    9      -12.458817
   10       -0.606378
   11       -0.099941
   12        0.510511
   13        0.767954
   14        1.166846
   15        1.589176
   16        2.162237
   17        2.621726
   18        2.744578
   19        6.538798
   20        7.480149
   21        7.537345
   22        8.851669
 
  0.4000000E+00  0.0000000E+00  0.4000000E+00  0.1600000E-01
    1      -29.027059
    2      -29.010133
    3      -28.946911
    4      -16.659414
    5      -16.632018
    6      -16.488188
    7      -13.120688
    8      -12.424922
    9      -12.355991
   10       -0.907376
   11       -0.640902
   12       -0.363181
   13        0.778677
   14        0.933776
   15        1.718154
   16        1.845821
   17        2.156704
   18        3.419697
   19        7.436506
   20        7.520286
   21        7.831551
   22        9.086122
 
 -0.4000000E+00  0.0000000E+00  0.4000000E+00  0.1600000E-01
    1      -29.027096
    2      -29.010091
    3      -28.946910
    4      -16.657260
    5      -16.633989
    6      -16.488174
    7      -13.121317
    8      -12.420809
    9      -12.359775
   10       -0.938318
   11       -0.662657
   12       -0.306167
   13        0.765557
   14        0.949340
   15        1.738134
   16        1.830132
   17        2.157956
   18        3.415027
   19        7.418193
   20        7.525366
   21        7.837988
   22        9.081487
 
 -0.2000000E+00  0.0000000E+00  0.4000000E+00  0.1600000E-01
    1      -29.028382
    2      -28.967536
    3      -28.948507
    4      -16.706993
    5      -16.553802
    6      -16.496458
    7      -13.190071
    8      -12.672019
    9      -12.459931
   10       -0.635338
   11       -0.119828
   12        0.570592
   13        0.761185
   14        1.178615
   15        1.600325
   16        2.156170
   17        2.621596
   18        2.740041
   19        6.527630
   20        7.461406
   21        7.550627
   22        8.848478
 
  0.0000000E+00  0.2000000E+00  0.4000000E+00  0.1600000E-01
    1      -29.028365
    2      -28.976447
    3      -28.939645
    4      -16.708253
    5      -16.556157
    6      -16.492658
    7      -13.182263
    8      -12.679332
    9      -12.459266
   10       -0.600447
   11       -0.099979
   12        0.511550
   13        0.750672
   14        1.157344
   15        1.589157
   16        2.204629
   17        2.559824
   18        2.752691
   19        6.579434
   20        7.477586
   21        7.535126
   22        8.849791
 
  0.2000000E+00  0.2000000E+00  0.4000000E+00  0.1600000E-01
    1      -29.027346
    2      -28.975365
    3      -28.966203
    4      -16.681034
    5      -16.555545
    6      -16.531875
    7      -13.018182
    8      -12.636914
    9      -12.440502
   10       -0.603154
   11       -0.154671
   12        0.119150
   13        0.319871
   14        0.713417
   15        1.346190
   16        2.515379
   17        2.567561
   18        2.924815
   19        6.932120
   20        7.546840
   21        7.584457
   22        9.737510
 
  0.4000000E+00  0.2000000E+00  0.4000000E+00  0.1600000E-01
    1      -29.025744
    2      -29.008853
    3      -28.973381
    4      -16.642104
    5      -16.614578
    6      -16.526815
    7      -12.887785
    8      -12.436300
    9      -12.382546
   10       -0.795677
   11       -0.598842
   12       -0.347331
   13        0.075291
   14        0.161494
   15        0.988954
   16        2.627150
   17        2.702351
   18        3.450175
   19        7.596770
   20        7.659291
   21        7.905031
   22        9.780652
 
 -0.4000000E+00  0.2000000E+00  0.4000000E+00  0.1600000E-01
    1      -29.025791
    2      -29.008864
    3      -28.973325
    4      -16.639332
    5      -16.616433
    6      -16.526817
    7      -12.890163
    8      -12.435045
    9      -12.382945
   10       -0.829172
   11       -0.638299
   12       -0.291634
   13        0.062560
   14        0.171252
   15        1.020089
   16        2.661483
   17        2.699684
   18        3.438570
   19        7.563914
   20        7.667014
   21        7.913571
   22        9.728054
 
 -0.2000000E+00  0.2000000E+00  0.4000000E+00  0.1600000E-01
    1      -29.027368
    2      -28.975732
    3      -28.965833
    4      -16.679597
    5      -16.554242
    6      -16.533110
    7      -13.021804
    8      -12.634506
    9      -12.441918
   10       -0.627806
   11       -0.197716
   12        0.135038
   13        0.328682
   14        0.681729
   15        1.429385
   16        2.535440
   17        2.653911
   18        2.879904
   19        6.864722
   20        7.543756
   21        7.592016
   22        9.746538
 
  0.0000000E+00  0.4000000E+00  0.4000000E+00  0.1600000E-01
    1      -29.027325
    2      -29.018864
    3      -28.937995
    4      -16.663072
    5      -16.630036
    6      -16.485150
    7      -13.106406
    8      -12.433749
    9      -12.359922
   10       -0.912291
   11       -0.635784
   12       -0.375475
   13        0.763565
   14        0.915988
   15        1.729515
   16        1.850282
   17        2.142636
   18        3.427556
   19        7.473441
   20        7.515148
   21        7.828781
   22        9.106857
 
  0.2000000E+00  0.4000000E+00  0.4000000E+00  0.1600000E-01
    1      -29.026006
    2      -29.017596
    3      -28.964428
    4      -16.645314
    5      -16.611877
    6      -16.525307
    7      -12.875945
    8      -12.441091
    9      -12.388800
   10       -0.799697
   11       -0.594685
   12       -0.361488
   13        0.060497
   14        0.155296
   15        1.006174
   16        2.628942
   17        2.703296
   18        3.453301
   19        7.598745
   20        7.662591
   21        7.905011
   22        9.766256
 
  0.4000000E+00  0.4000000E+00  0.4000000E+00  0.1600000E-01
    1      -29.023906
    2      -29.015714
    3      -29.006581
    4      -16.617240
    5      -16.587759
    6      -16.581407
    7      -12.507619
    8      -12.438115
    9      -12.422789
   10       -0.769357
   11       -0.492621
   12       -0.478330
   13       -0.472208
   14       -0.319929
   15       -0.284001
   16        3.340422
   17        3.355043
   18        3.561775
   19        7.948228
   20        8.046142
   21        8.055918
   22        9.732652
 
 -0.4000000E+00  0.4000000E+00  0.4000000E+00  0.1600000E-01
    1      -29.023963
    2      -29.015910
    3      -29.006334
    4      -16.615303
    5      -16.588973
    6      -16.581280
    7      -12.519054
    8      -12.438121
    9      -12.412744
   10       -0.787074
   11       -0.582498
   12       -0.509331
   13       -0.470965
   14       -0.285339
   15       -0.173806
   16        3.363771
   17        3.393058
   18        3.518891
   19        7.940347
   20        8.043849
   21        8.066567
   22        9.583226
 
 -0.2000000E+00  0.4000000E+00  0.4000000E+00  0.1600000E-01
    1      -29.026032
    2      -29.017652
    3      -28.964363
    4      -16.643914
    5      -16.611636
    6      -16.525555
    7      -12.879770
    8      -12.438996
    9      -12.389456
   10       -0.804035
   11       -0.611582
   12       -0.385895
   13        0.023251
   14        0.190075
   15        1.063998
   16        2.679853
   17        2.703429
   18        3.441104
   19        7.549738
   20        7.677414
   21        7.909820
   22        9.690137
 
  0.0000000E+00 -0.4000000E+00  0.4000000E+00  0.1600000E-01
    1      -29.027440
    2      -29.018744
    3      -28.937994
    4      -16.660139
    5      -16.632630
    6      -16.485146
    7      -13.107448
    8      -12.426923
    9      -12.366308
   10       -0.955938
   11       -0.667576
   12       -0.293629
   13        0.742629
   14        0.940824
   15        1.760257
   16        1.829207
   17        2.142440
   18        3.419697
   19        7.441795
   20        7.529246
   21        7.836972
   22        9.098396
 
  0.2000000E+00 -0.4000000E+00  0.4000000E+00  0.1600000E-01
    1      -29.026163
    2      -29.017476
    3      -28.964392
    4      -16.642022
    5      -16.614097
    6      -16.525264
    7      -12.878902
    8      -12.438801
    9      -12.390050