 vasp.5.3.5 31Mar14 (build Dec 17 2015 22:09:37) complex                        
  
 executed on             LinuxIFC date 2017.03.19  16:24:10
 running on   22 total cores
 distrk:  each k-point on   22 cores,    1 groups
 distr:  one band on NCORES_PER_BAND=   1 cores,   22 groups


--------------------------------------------------------------------------------------------------------


 INCAR:
 POTCAR:    PAW_PBE Ti_pv 07Sep2000               
 POTCAR:    PAW_PBE Ca_pv 06Sep2000               
 POTCAR:    PAW_PBE O 08Apr2002                   

 ----------------------------------------------------------------------------- 
|                                                                             |
|           W    W    AA    RRRRR   N    N  II  N    N   GGGG   !!!           |
|           W    W   A  A   R    R  NN   N  II  NN   N  G    G  !!!           |
|           W    W  A    A  R    R  N N  N  II  N N  N  G       !!!           |
|           W WW W  AAAAAA  RRRRR   N  N N  II  N  N N  G  GGG   !            |
|           WW  WW  A    A  R   R   N   NN  II  N   NN  G    G                |
|           W    W  A    A  R    R  N    N  II  N    N   GGGG   !!!           |
|                                                                             |
|      For optimal performance we recommend to set                            |
|        NCORE= 4 - approx SQRT( number of cores)                             |
|      NCORE specifies how many cores store one orbital (NPAR=cpu/NCORE).     |
|      This setting can  greatly improve the performance of VASP for DFT.     |
|      The default, NPAR=number of cores might be grossly inefficient         |
|      on modern multi-core architectures or massively parallel machines.     |
|      Do your own testing !!!!                                               |
|      Unfortunately you need to use the default for GW and RPA calculations. |
|      (for HF NCORE is supported but not extensively tested yet)             |
|                                                                             |
 ----------------------------------------------------------------------------- 

 POTCAR:    PAW_PBE Ti_pv 07Sep2000               
   VRHFIN =Ti: d3 s1                                                            
   LEXCH  = PE                                                                  
   EATOM  =  1042.5995 eV,   76.6289 Ry                                         
                                                                                
   TITEL  = PAW_PBE Ti_pv 07Sep2000                                             
   LULTRA =        F    use ultrasoft PP ?                                      
   IUNSCR =        1    unscreen: 0-lin 1-nonlin 2-no                           
   RPACOR =    2.200    partial core radius                                     
   POMASS =   47.880; ZVAL   =   10.000    mass and valenz                      
   RCORE  =    2.500    outmost cutoff radius                                   
   RWIGS  =    2.500; RWIGS  =    1.323    wigner-seitz radius (au A)           
   ENMAX  =  222.335; ENMIN  =  166.751 eV                                      
   RCLOC  =    1.701    cutoff for local pot                                    
   LCOR   =        T    correct aug charges                                     
   LPAW   =        T    paw PP                                                  
   EAUG   =  482.848                                                            
   DEXC   =    0.000                                                            
   RMAX   =    2.564    core radius for proj-oper                               
   RAUG   =    1.300    factor for augmentation sphere                          
   RDEP   =    2.538    radius for radial grids                                 
   RDEPT  =    1.952    core radius for aug-charge                              
                                                                                
   Atomic configuration                                                         
    8 entries                                                                   
     n  l   j            E        occ.                                          
     1  0  0.50     -4865.3608   2.0000                                         
     2  0  0.50      -533.1368   2.0000                                         
     2  1  1.50      -440.5031   6.0000                                         
     3  0  0.50       -59.3186   2.0000                                         
     3  1  1.50       -35.7012   6.0000                                         
     3  2  2.50        -1.9157   3.0000                                         
     4  0  0.50        -3.7291   1.0000                                         
     4  3  2.50        -1.3606   0.0000                                         
   Description                                                                  
     l       E           TYP  RCUT    TYP  RCUT                                 
     1    -35.7012140     23  2.300                                             
     1     -1.3605826     23  2.300                                             
     2     -1.9156996     23  2.500                                             
     2     -0.4063033     23  2.500                                             
     0     -3.7290856     23  2.500                                             
     0     20.4087390     23  2.500                                             
  local pseudopotential read in
  partial core-charges read in
  partial kinetic energy density read in
  atomic valenz-charges read in
  non local Contribution for L=           1  read in
    real space projection operators read in
  non local Contribution for L=           1  read in
    real space projection operators read in
  non local Contribution for L=           2  read in
    real space projection operators read in
  non local Contribution for L=           2  read in
    real space projection operators read in
  non local Contribution for L=           0  read in
    real space projection operators read in
  non local Contribution for L=           0  read in
    real space projection operators read in
    PAW grid and wavefunctions read in
 
   number of l-projection  operators is LMAX  =           6
   number of lm-projection operators is LMMAX =          18
 
 POTCAR:    PAW_PBE Ca_pv 06Sep2000               
   VRHFIN =Ca: p6s2d0.01                                                        
   LEXCH  = PE                                                                  
   EATOM  =   612.6676 eV,   45.0298 Ry                                         
                                                                                
   TITEL  = PAW_PBE Ca_pv 06Sep2000                                             
   LULTRA =        F    use ultrasoft PP ?                                      
   IUNSCR =        1    unscreen: 0-lin 1-nonlin 2-no                           
   RPACOR =    2.300    partial core radius                                     
   POMASS =   40.078; ZVAL   =    8.000    mass and valenz                      
   RCORE  =    3.000    outmost cutoff radius                                   
   RWIGS  =    3.300; RWIGS  =    1.746    wigner-seitz radius (au A)           
   ENMAX  =  119.559; ENMIN  =   89.670 eV                                      
   RCLOC  =    1.709    cutoff for local pot                                    
   LCOR   =        T    correct aug charges                                     
   LPAW   =        T    paw PP                                                  
   EAUG   =  325.799                                                            
   DEXC   =    0.000                                                            
   RMAX   =    3.072    core radius for proj-oper                               
   RAUG   =    1.300    factor for augmentation sphere                          
   RDEP   =    3.090    radius for radial grids                                 
   RDEPT  =    2.377    core radius for aug-charge                              
                                                                                
   Atomic configuration                                                         
    7 entries                                                                   
     n  l   j            E        occ.                                          
     1  0  0.50     -3949.1705   2.0000                                         
     2  0  0.50      -414.3434   2.0000                                         
     2  1  1.50      -334.7047   6.0000                                         
     3  0  0.50       -47.0896   2.0000                                         
     3  1  1.50       -28.0061   6.0000                                         
     4  0  0.50        -3.7663   2.0000                                         
     3  2  1.50        -4.0817   0.0000                                         
   Description                                                                  
     l       E           TYP  RCUT    TYP  RCUT                                 
     1    -28.0060855     23  3.000                                             
     1      1.3605826     23  3.000                                             
     0     -3.7663320     23  3.000                                             
     0      4.1207953     23  3.000                                             
     2     -4.0817478     23  3.000                                             
     2     -0.8716232     23  3.000                                             
  local pseudopotential read in
  partial core-charges read in
  partial kinetic energy density read in
  atomic valenz-charges read in
  non local Contribution for L=           1  read in
    real space projection operators read in
  non local Contribution for L=           1  read in
    real space projection operators read in
  non local Contribution for L=           0  read in
    real space projection operators read in
  non local Contribution for L=           0  read in
    real space projection operators read in
  non local Contribution for L=           2  read in
    real space projection operators read in
  non local Contribution for L=           2  read in
    real space projection operators read in
    PAW grid and wavefunctions read in
 
   number of l-projection  operators is LMAX  =           6
   number of lm-projection operators is LMMAX =          18
 
 POTCAR:    PAW_PBE O 08Apr2002                   
   VRHFIN =O: s2p4                                                              
   LEXCH  = PE                                                                  
   EATOM  =   432.3788 eV,   31.7789 Ry                                         
                                                                                
   TITEL  = PAW_PBE O 08Apr2002                                                 
   LULTRA =        F    use ultrasoft PP ?                                      
   IUNSCR =        1    unscreen: 0-lin 1-nonlin 2-no                           
   RPACOR =    1.200    partial core radius                                     
   POMASS =   16.000; ZVAL   =    6.000    mass and valenz                      
   RCORE  =    1.520    outmost cutoff radius                                   
   RWIGS  =    1.550; RWIGS  =    0.820    wigner-seitz radius (au A)           
   ENMAX  =  400.000; ENMIN  =  300.000 eV                                      
   ICORE  =        2    local potential                                         
   LCOR   =        T    correct aug charges                                     
   LPAW   =        T    paw PP                                                  
   EAUG   =  605.392                                                            
   DEXC   =    0.000                                                            
   RMAX   =    1.553    core radius for proj-oper                               
   RAUG   =    1.300    factor for augmentation sphere                          
   RDEP   =    1.550    radius for radial grids                                 
   RDEPT  =    1.329    core radius for aug-charge                              
                                                                                
   Atomic configuration                                                         
    4 entries                                                                   
     n  l   j            E        occ.                                          
     1  0  0.50      -514.6923   2.0000                                         
     2  0  0.50       -23.9615   2.0000                                         
     2  1  0.50        -9.0305   4.0000                                         
     3  2  1.50        -9.5241   0.0000                                         
   Description                                                                  
     l       E           TYP  RCUT    TYP  RCUT                                 
     0    -23.9615318     23  1.200                                             
     0     -9.5240782     23  1.200                                             
     1     -9.0304911     23  1.520                                             
     1      8.1634956     23  1.520                                             
     2     -9.5240782      7  1.500                                             
  local pseudopotential read in
  partial core-charges read in
  partial kinetic energy density read in
  kinetic energy density of atom read in
  atomic valenz-charges read in
  non local Contribution for L=           0  read in
    real space projection operators read in
  non local Contribution for L=           0  read in
    real space projection operators read in
  non local Contribution for L=           1  read in
    real space projection operators read in
  non local Contribution for L=           1  read in
    real space projection operators read in
    PAW grid and wavefunctions read in
 
   number of l-projection  operators is LMAX  =           4
   number of lm-projection operators is LMMAX =           8
 
  PAW_PBE Ti_pv 07Sep2000               :
 energy of atom  1       EATOM=-1042.5995
 kinetic energy error for atom=    0.0037 (will be added to EATOM!!)
  PAW_PBE Ca_pv 06Sep2000               :
 energy of atom  2       EATOM= -612.6676
 kinetic energy error for atom=    0.0002 (will be added to EATOM!!)
  PAW_PBE O 08Apr2002                   :
 energy of atom  3       EATOM= -432.3788
 kinetic energy error for atom=    0.1156 (will be added to EATOM!!)
 
 
 POSCAR: CaTiO3                                  
  positions in direct lattice
  velocities in cartesian coordinates
  No initial velocities read in
 exchange correlation table for  LEXCH =        8
   RHO(1)=    0.500       N(1)  =     2000
   RHO(2)=  100.500       N(2)  =     4000

 VTST: version 3.1, (03/28/14)

 CHAIN: initializing optimizer
 
 OPT: Using VASP Conjugate-Gradient optimizer
 CHAIN: Read ICHAIN            0
 
 POSCAR: CaTiO3                                  
  positions in direct lattice
  velocities in cartesian coordinates
  No initial velocities read in
 


--------------------------------------------------------------------------------------------------------


 ion  position               nearest neighbor table
   1  0.010  0.020  0.030-   5 1.83   4 1.87   3 1.91   3 1.98   4 2.02   5 2.06   2 3.23   2 3.27
                             2 3.32   2 3.37   2 3.37   2 3.41   2 3.45   2 3.50
   2  0.500  0.500  0.500-   3 2.75   4 2.75   5 2.75   3 2.75   4 2.75   3 2.75   5 2.75   3 2.75
                             4 2.75   5 2.75   4 2.75   5 2.75   1 3.23   1 3.27   1 3.32   1 3.37
   3  0.500  0.000  0.000-   1 1.91   1 1.98   2 2.75   2 2.75   2 2.75   2 2.75
   4  0.000  0.500  0.000-   1 1.87   1 2.02   2 2.75   2 2.75   2 2.75   2 2.75
   5  0.000  0.000  0.500-   1 1.83   1 2.06   2 2.75   2 2.75   2 2.75   2 2.75
 
  LATTYP: Found a simple cubic cell.
 ALAT       =     3.8822000000
  
  Lattice vectors:
  
 A1 = (   3.8822000000,   0.0000000000,   0.0000000000)
 A2 = (   0.0000000000,   3.8822000000,   0.0000000000)
 A3 = (   0.0000000000,   0.0000000000,   3.8822000000)


Analysis of symmetry for initial positions (statically):
=====================================================================
 Subroutine PRICEL returns:
 Original cell was already a primitive cell.
 

 Routine SETGRP: Setting up the symmetry group for a 
 simple cubic supercell.


 Subroutine GETGRP returns: Found  1 space group operations
 (whereof  1 operations were pure point group operations)
 out of a pool of 48 trial point group operations.


The static configuration has the point symmetry C_1 .


Analysis of symmetry for dynamics (positions and initial velocities):
=====================================================================
 Subroutine PRICEL returns:
 Original cell was already a primitive cell.
 

 Routine SETGRP: Setting up the symmetry group for a 
 simple cubic supercell.


 Subroutine GETGRP returns: Found  1 space group operations
 (whereof  1 operations were pure point group operations)
 out of a pool of 48 trial point group operations.


The dynamic configuration has the point symmetry C_1 .


Analysis of constrained symmetry for selective dynamics:
=====================================================================
 Subroutine PRICEL returns:
 Original cell was already a primitive cell.
 

 Routine SETGRP: Setting up the symmetry group for a 
 simple cubic supercell.


 Subroutine GETGRP returns: Found  1 space group operations
 (whereof  1 operations were pure point group operations)
 out of a pool of 48 trial point group operations.


The constrained configuration has the point symmetry C_1 .
 
 
 KPOINTS: k-points                                

Automatic generation of k-mesh.
Space group operators:
 irot       det(A)        alpha          n_x          n_y          n_z        tau_x        tau_y        tau_z
    1     1.000000     0.000000     1.000000     0.000000     0.000000     0.000000     0.000000     0.000000
 
 Subroutine IBZKPT returns following result:
 ===========================================
 
 Found     63 irreducible k-points:
 
 Following reciprocal coordinates:
            Coordinates               Weight
  0.000000  0.000000  0.000000      1.000000
  0.200000  0.000000  0.000000      2.000000
  0.400000  0.000000  0.000000      2.000000
  0.000000  0.200000  0.000000      2.000000
  0.200000  0.200000  0.000000      2.000000
  0.400000  0.200000  0.000000      2.000000
 -0.400000  0.200000  0.000000      2.000000
 -0.200000  0.200000  0.000000      2.000000
  0.000000  0.400000  0.000000      2.000000
  0.200000  0.400000  0.000000      2.000000
  0.400000  0.400000  0.000000      2.000000
 -0.400000  0.400000  0.000000      2.000000
 -0.200000  0.400000  0.000000      2.000000
  0.000000  0.000000  0.200000      2.000000
  0.200000  0.000000  0.200000      2.000000
  0.400000  0.000000  0.200000      2.000000
 -0.400000  0.000000  0.200000      2.000000
 -0.200000  0.000000  0.200000      2.000000
  0.000000  0.200000  0.200000      2.000000
  0.200000  0.200000  0.200000      2.000000
  0.400000  0.200000  0.200000      2.000000
 -0.400000  0.200000  0.200000      2.000000
 -0.200000  0.200000  0.200000      2.000000
  0.000000  0.400000  0.200000      2.000000
  0.200000  0.400000  0.200000      2.000000
  0.400000  0.400000  0.200000      2.000000
 -0.400000  0.400000  0.200000      2.000000
 -0.200000  0.400000  0.200000      2.000000
  0.000000 -0.400000  0.200000      2.000000
  0.200000 -0.400000  0.200000      2.000000
  0.400000 -0.400000  0.200000      2.000000
 -0.400000 -0.400000  0.200000      2.000000
 -0.200000 -0.400000  0.200000      2.000000
  0.000000 -0.200000  0.200000      2.000000
  0.200000 -0.200000  0.200000      2.000000
  0.400000 -0.200000  0.200000      2.000000
 -0.400000 -0.200000  0.200000      2.000000
 -0.200000 -0.200000  0.200000      2.000000
  0.000000  0.000000  0.400000      2.000000
  0.200000  0.000000  0.400000      2.000000
  0.400000  0.000000  0.400000      2.000000
 -0.400000  0.000000  0.400000      2.000000
 -0.200000  0.000000  0.400000      2.000000
  0.000000  0.200000  0.400000      2.000000
  0.200000  0.200000  0.400000      2.000000
  0.400000  0.200000  0.400000      2.000000
 -0.400000  0.200000  0.400000      2.000000
 -0.200000  0.200000  0.400000      2.000000
  0.000000  0.400000  0.400000      2.000000
  0.200000  0.400000  0.400000      2.000000
  0.400000  0.400000  0.400000      2.000000
 -0.400000  0.400000  0.400000      2.000000
 -0.200000  0.400000  0.400000      2.000000
  0.000000 -0.400000  0.400000      2.000000
  0.200000 -0.400000  0.400000      2.000000
  0.400000 -0.400000  0.400000      2.000000
 -0.400000 -0.400000  0.400000      2.000000
 -0.200000 -0.400000  0.400000      2.000000
  0.000000 -0.200000  0.400000      2.000000
  0.200000 -0.200000  0.400000      2.000000
  0.400000 -0.200000  0.400000      2.000000
 -0.400000 -0.200000  0.400000      2.000000
 -0.200000 -0.200000  0.400000      2.000000
 
 Following cartesian coordinates:
            Coordinates               Weight
  0.000000  0.000000  0.000000      1.000000
  0.200000  0.000000  0.000000      2.000000
  0.400000  0.000000  0.000000      2.000000
  0.000000  0.200000  0.000000      2.000000
  0.200000  0.200000  0.000000      2.000000
  0.400000  0.200000  0.000000      2.000000
 -0.400000  0.200000  0.000000      2.000000
 -0.200000  0.200000  0.000000      2.000000
  0.000000  0.400000  0.000000      2.000000
  0.200000  0.400000  0.000000      2.000000
  0.400000  0.400000  0.000000      2.000000
 -0.400000  0.400000  0.000000      2.000000
 -0.200000  0.400000  0.000000      2.000000
  0.000000  0.000000  0.200000      2.000000
  0.200000  0.000000  0.200000      2.000000
  0.400000  0.000000  0.200000      2.000000
 -0.400000  0.000000  0.200000      2.000000
 -0.200000  0.000000  0.200000      2.000000
  0.000000  0.200000  0.200000      2.000000
  0.200000  0.200000  0.200000      2.000000
  0.400000  0.200000  0.200000      2.000000
 -0.400000  0.200000  0.200000      2.000000
 -0.200000  0.200000  0.200000      2.000000
  0.000000  0.400000  0.200000      2.000000
  0.200000  0.400000  0.200000      2.000000
  0.400000  0.400000  0.200000      2.000000
 -0.400000  0.400000  0.200000      2.000000
 -0.200000  0.400000  0.200000      2.000000
  0.000000 -0.400000  0.200000      2.000000
  0.200000 -0.400000  0.200000      2.000000
  0.400000 -0.400000  0.200000      2.000000
 -0.400000 -0.400000  0.200000      2.000000
 -0.200000 -0.400000  0.200000      2.000000
  0.000000 -0.200000  0.200000      2.000000
  0.200000 -0.200000  0.200000      2.000000
  0.400000 -0.200000  0.200000      2.000000
 -0.400000 -0.200000  0.200000      2.000000
 -0.200000 -0.200000  0.200000      2.000000
  0.000000  0.000000  0.400000      2.000000
  0.200000  0.000000  0.400000      2.000000
  0.400000  0.000000  0.400000      2.000000
 -0.400000  0.000000  0.400000      2.000000
 -0.200000  0.000000  0.400000      2.000000
  0.000000  0.200000  0.400000      2.000000
  0.200000  0.200000  0.400000      2.000000
  0.400000  0.200000  0.400000      2.000000
 -0.400000  0.200000  0.400000      2.000000
 -0.200000  0.200000  0.400000      2.000000
  0.000000  0.400000  0.400000      2.000000
  0.200000  0.400000  0.400000      2.000000
  0.400000  0.400000  0.400000      2.000000
 -0.400000  0.400000  0.400000      2.000000
 -0.200000  0.400000  0.400000      2.000000
  0.000000 -0.400000  0.400000      2.000000
  0.200000 -0.400000  0.400000      2.000000
  0.400000 -0.400000  0.400000      2.000000
 -0.400000 -0.400000  0.400000      2.000000
 -0.200000 -0.400000  0.400000      2.000000
  0.000000 -0.200000  0.400000      2.000000
  0.200000 -0.200000  0.400000      2.000000
  0.400000 -0.200000  0.400000      2.000000
 -0.400000 -0.200000  0.400000      2.000000
 -0.200000 -0.200000  0.400000      2.000000
 


--------------------------------------------------------------------------------------------------------




 Dimension of arrays:
   k-points           NKPTS =     63   k-points in BZ     NKDIM =     63   number of bands    NBANDS=     22
   number of dos      NEDOS =    301   number of ions     NIONS =      5
   non local maximal  LDIM  =      6   non local SUM 2l+1 LMDIM =     18
   total plane-waves  NPLWV =   8000
   max r-space proj   IRMAX =      1   max aug-charges    IRDMAX=   9776
   dimension x,y,z NGX =    20 NGY =   20 NGZ =   20
   dimension x,y,z NGXF=    40 NGYF=   40 NGZF=   40
   support grid    NGXF=    40 NGYF=   40 NGZF=   40
   ions per type =               1   1   3
 NGX,Y,Z   is equivalent  to a cutoff of   8.56,  8.56,  8.56 a.u.
 NGXF,Y,Z  is equivalent  to a cutoff of  17.13, 17.13, 17.13 a.u.


 I would recommend the setting:
   dimension x,y,z NGX =    19 NGY =   19 NGZ =   19
 SYSTEM =  unknown system                          
 POSCAR =  CaTiO3                                  

 Startparameter for this run:
   NWRITE =      2    write-flag & timer
   PREC   = normal    normal or accurate (medium, high low for compatibility)
   ISTART =      0    job   : 0-new  1-cont  2-samecut
   ICHARG =      2    charge: 1-file 2-atom 10-const
   ISPIN  =      1    spin polarized calculation?
   LNONCOLLINEAR =      F non collinear calculations
   LSORBIT =      F    spin-orbit coupling
   INIWAV =      1    electr: 0-lowe 1-rand  2-diag
   LASPH  =      F    aspherical Exc in radial PAW
   METAGGA=      F    non-selfconsistent MetaGGA calc.

 Electronic Relaxation 1
   ENCUT  =  400.0 eV  29.40 Ry    5.42 a.u.   6.33  6.33  6.33*2*pi/ulx,y,z
   ENINI  =  400.0     initial cutoff
   ENAUG  =  605.4 eV  augmentation charge cutoff
   NELM   =     60;   NELMIN=  2; NELMDL= -5     # of ELM steps 
   EDIFF  = 0.1E-03   stopping-criterion for ELM
   LREAL  =      F    real-space projection
   NLSPLINE    = F    spline interpolate recip. space projectors
   LCOMPAT=      F    compatible to vasp.4.4
   GGA_COMPAT  = T    GGA compatible to vasp.4.4-vasp.4.6
   LMAXPAW     = -100 max onsite density
   LMAXMIX     =    2 max onsite mixed and CHGCAR
   VOSKOWN=      0    Vosko Wilk Nusair interpolation
   ROPT   =    0.00000   0.00000   0.00000
 Ionic relaxation
   EDIFFG = 0.1E-02   stopping-criterion for IOM
   NSW    =   1024    number of steps for IOM
   NBLOCK =      1;   KBLOCK =   1024    inner block; outer block 
   IBRION =      2    ionic relax: 0-MD 1-quasi-New 2-CG
   NFREE  =      1    steps in history (QN), initial steepest desc. (CG)
   ISIF   =      2    stress and relaxation
   IWAVPR =     11    prediction:  0-non 1-charg 2-wave 3-comb
   ISYM   =      2    0-nonsym 1-usesym 2-fastsym
   LCORR  =      T    Harris-Foulkes like correction to forces

   POTIM  = 0.5000    time-step for ionic-motion
   TEIN   =    0.0    initial temperature
   TEBEG  =    0.0;   TEEND  =   0.0 temperature during run
   SMASS  =  -3.00    Nose mass-parameter (am)
   estimated Nose-frequenzy (Omega)   =  0.10E-29 period in steps =****** mass=  -0.344E-27a.u.
   SCALEE = 1.0000    scale energy and forces
   NPACO  =    256;   APACO  = 16.0  distance and # of slots for P.C.
   PSTRESS=    0.0 pullay stress

  Mass of Ions in am
   POMASS =  47.88 40.08 16.00
  Ionic Valenz
   ZVAL   =  10.00  8.00  6.00
  Atomic Wigner-Seitz radii
   RWIGS  =  -1.00 -1.00 -1.00
  virtual crystal weights 
   VCA    =   1.00  1.00  1.00
   NELECT =      36.0000    total number of electrons
   NUPDOWN=      -1.0000    fix difference up-down

 DOS related values:
   EMIN   =  10.00;   EMAX   =-10.00  energy-range for DOS
   EFERMI =   0.00
   ISMEAR =     1;   SIGMA  =   0.20  broadening in eV -4-tet -1-fermi 0-gaus

 Electronic relaxation 2 (details)
   IALGO  =     38    algorithm
   LDIAG  =      T    sub-space diagonalisation (order eigenvalues)
   LSUBROT=      F    optimize rotation matrix (better conditioning)
   TURBO    =      0    0=normal 1=particle mesh
   IRESTART =      0    0=no restart 2=restart with 2 vectors
   NREBOOT  =      0    no. of reboots
   NMIN     =      0    reboot dimension
   EREF     =   0.00    reference energy to select bands
   IMIX   =      4    mixing-type and parameters
     AMIX     =   0.40;   BMIX     =  1.00
     AMIX_MAG =   1.60;   BMIX_MAG =  1.00
     AMIN     =   0.10
     WC   =   100.;   INIMIX=   1;  MIXPRE=   1;  MAXMIX= -45

 Intra band minimization:
   WEIMIN = 0.0010     energy-eigenvalue tresh-hold
   EBREAK =  0.11E-05  absolut break condition
   DEPER  =   0.30     relativ break condition  

   TIME   =   0.40     timestep for ELM

  volume/ion in A,a.u.               =      11.70        78.97
  Fermi-wavevector in a.u.,A,eV,Ry     =   1.392401  2.631257 26.378723  1.938781
  Thomas-Fermi vector in A             =   2.516148
 
 Write flags
   LWAVE  =      T    write WAVECAR
   LCHARG =      T    write CHGCAR
   LVTOT  =      F    write LOCPOT, total local potential
   LVHAR  =      F    write LOCPOT, Hartree potential only
   LELF   =      F    write electronic localiz. function (ELF)
   LORBIT =      0    0 simple, 1 ext, 2 COOP (PROOUT)


 Dipole corrections
   LMONO  =      F    monopole corrections only (constant potential shift)
   LDIPOL =      F    correct potential (dipole corrections)
   IDIPOL =      0    1-x, 2-y, 3-z, 4-all directions 
   EPSILON=  1.0000000 bulk dielectric constant

 Exchange correlation treatment:
   GGA     =    --    GGA type
   LEXCH   =     8    internal setting for exchange type
   VOSKOWN=      0    Vosko Wilk Nusair interpolation
   LHFCALC =     F    Hartree Fock is set to
   LHFONE  =     F    Hartree Fock one center treatment
   AEXX    =    0.0000 exact exchange contribution

 Linear response parameters
   LEPSILON=     F    determine dielectric tensor
   LRPA    =     F    only Hartree local field effects (RPA)
   LNABLA  =     F    use nabla operator in PAW spheres
   LVEL    =     F    velocity operator in full k-point grid
   LINTERFAST=   F  fast interpolation
   KINTER  =     0    interpolate to denser k-point grid
   CSHIFT  =0.1000    complex shift for real part using Kramers Kronig
   OMEGAMAX=  -1.0    maximum frequency
   DEG_THRESHOLD= 0.2000000E-02 threshold for treating states as degnerate
   RTIME   =    0.100 relaxation time in fs

 Orbital magnetization related:
   ORBITALMAG=     F  switch on orbital magnetization
   LCHIMAG   =     F  perturbation theory with respect to B field
   DQ        =  0.001000  dq finite difference perturbation B field



--------------------------------------------------------------------------------------------------------


 conjugate gradient relaxation of ions
   using selective dynamics as specified on POSCAR
 charge density and potential will be updated during run
 non-spin polarized calculation
 Variant of blocked Davidson
 Davidson routine will perform the subspace rotation
 perform sub-space diagonalisation
    after iterative eigenvector-optimisation
 modified Broyden-mixing scheme, WC =      100.0
 initial mixing is a Kerker type mixing with AMIX =  0.4000 and BMIX =      1.0000
 Hartree-type preconditioning will be used
 using additional bands            4
 reciprocal scheme for non local part
 use partial core corrections
 calculate Harris-corrections to forces 
   (improved forces if not selfconsistent)
 use gradient corrections 
 use of overlap-Matrix (Vanderbilt PP)
 Methfessel and Paxton  Order N= 1 SIGMA  =   0.20


--------------------------------------------------------------------------------------------------------


  energy-cutoff  :      400.00
  volume of cell :       58.51
      direct lattice vectors                 reciprocal lattice vectors
     3.882200000  0.000000000  0.000000000     0.257585905  0.000000000  0.000000000
     0.000000000  3.882200000  0.000000000     0.000000000  0.257585905  0.000000000
     0.000000000  0.000000000  3.882200000     0.000000000  0.000000000  0.257585905

  length of vectors
     3.882200000  3.882200000  3.882200000     0.257585905  0.257585905  0.257585905


 
 k-points in units of 2pi/SCALE and weight: k-points                                
   0.00000000  0.00000000  0.00000000       0.008
   0.20000000  0.00000000  0.00000000       0.016
   0.40000000  0.00000000  0.00000000       0.016
   0.00000000  0.20000000  0.00000000       0.016
   0.20000000  0.20000000  0.00000000       0.016
   0.40000000  0.20000000  0.00000000       0.016
  -0.40000000  0.20000000  0.00000000       0.016
  -0.20000000  0.20000000  0.00000000       0.016
   0.00000000  0.40000000  0.00000000       0.016
   0.20000000  0.40000000  0.00000000       0.016
   0.40000000  0.40000000  0.00000000       0.016
  -0.40000000  0.40000000  0.00000000       0.016
  -0.20000000  0.40000000  0.00000000       0.016
   0.00000000  0.00000000  0.20000000       0.016
   0.20000000  0.00000000  0.20000000       0.016
   0.40000000  0.00000000  0.20000000       0.016
  -0.40000000  0.00000000  0.20000000       0.016
  -0.20000000  0.00000000  0.20000000       0.016
   0.00000000  0.20000000  0.20000000       0.016
   0.20000000  0.20000000  0.20000000       0.016
   0.40000000  0.20000000  0.20000000       0.016
  -0.40000000  0.20000000  0.20000000       0.016
  -0.20000000  0.20000000  0.20000000       0.016
   0.00000000  0.40000000  0.20000000       0.016
   0.20000000  0.40000000  0.20000000       0.016
   0.40000000  0.40000000  0.20000000       0.016
  -0.40000000  0.40000000  0.20000000       0.016
  -0.20000000  0.40000000  0.20000000       0.016
   0.00000000 -0.40000000  0.20000000       0.016
   0.20000000 -0.40000000  0.20000000       0.016
   0.40000000 -0.40000000  0.20000000       0.016
  -0.40000000 -0.40000000  0.20000000       0.016
  -0.20000000 -0.40000000  0.20000000       0.016
   0.00000000 -0.20000000  0.20000000       0.016
   0.20000000 -0.20000000  0.20000000       0.016
   0.40000000 -0.20000000  0.20000000       0.016
  -0.40000000 -0.20000000  0.20000000       0.016
  -0.20000000 -0.20000000  0.20000000       0.016
   0.00000000  0.00000000  0.40000000       0.016
   0.20000000  0.00000000  0.40000000       0.016
   0.40000000  0.00000000  0.40000000       0.016
  -0.40000000  0.00000000  0.40000000       0.016
  -0.20000000  0.00000000  0.40000000       0.016
   0.00000000  0.20000000  0.40000000       0.016
   0.20000000  0.20000000  0.40000000       0.016
   0.40000000  0.20000000  0.40000000       0.016
  -0.40000000  0.20000000  0.40000000       0.016
  -0.20000000  0.20000000  0.40000000       0.016
   0.00000000  0.40000000  0.40000000       0.016
   0.20000000  0.40000000  0.40000000       0.016
   0.40000000  0.40000000  0.40000000       0.016
  -0.40000000  0.40000000  0.40000000       0.016
  -0.20000000  0.40000000  0.40000000       0.016
   0.00000000 -0.40000000  0.40000000       0.016
   0.20000000 -0.40000000  0.40000000       0.016
   0.40000000 -0.40000000  0.40000000       0.016
  -0.40000000 -0.40000000  0.40000000       0.016
  -0.20000000 -0.40000000  0.40000000       0.016
   0.00000000 -0.20000000  0.40000000       0.016
   0.20000000 -0.20000000  0.40000000       0.016
   0.40000000 -0.20000000  0.40000000       0.016
  -0.40000000 -0.20000000  0.40000000       0.016
  -0.20000000 -0.20000000  0.40000000       0.016
 
 k-points in reciprocal lattice and weights: k-points                                
   0.00000000  0.00000000  0.00000000       0.008
   0.20000000  0.00000000  0.00000000       0.016
   0.40000000  0.00000000  0.00000000       0.016
   0.00000000  0.20000000  0.00000000       0.016
   0.20000000  0.20000000  0.00000000       0.016
   0.40000000  0.20000000  0.00000000       0.016
  -0.40000000  0.20000000  0.00000000       0.016
  -0.20000000  0.20000000  0.00000000       0.016
   0.00000000  0.40000000  0.00000000       0.016
   0.20000000  0.40000000  0.00000000       0.016
   0.40000000  0.40000000  0.00000000       0.016
  -0.40000000  0.40000000  0.00000000       0.016
  -0.20000000  0.40000000  0.00000000       0.016
   0.00000000  0.00000000  0.20000000       0.016
   0.20000000  0.00000000  0.20000000       0.016
   0.40000000  0.00000000  0.20000000       0.016
  -0.40000000  0.00000000  0.20000000       0.016
  -0.20000000  0.00000000  0.20000000       0.016
   0.00000000  0.20000000  0.20000000       0.016
   0.20000000  0.20000000  0.20000000       0.016
   0.40000000  0.20000000  0.20000000       0.016
  -0.40000000  0.20000000  0.20000000       0.016
  -0.20000000  0.20000000  0.20000000       0.016
   0.00000000  0.40000000  0.20000000       0.016
   0.20000000  0.40000000  0.20000000       0.016
   0.40000000  0.40000000  0.20000000       0.016
  -0.40000000  0.40000000  0.20000000       0.016
  -0.20000000  0.40000000  0.20000000       0.016
   0.00000000 -0.40000000  0.20000000       0.016
   0.20000000 -0.40000000  0.20000000       0.016
   0.40000000 -0.40000000  0.20000000       0.016
  -0.40000000 -0.40000000  0.20000000       0.016
  -0.20000000 -0.40000000  0.20000000       0.016
   0.00000000 -0.20000000  0.20000000       0.016
   0.20000000 -0.20000000  0.20000000       0.016
   0.40000000 -0.20000000  0.20000000       0.016
  -0.40000000 -0.20000000  0.20000000       0.016
  -0.20000000 -0.20000000  0.20000000       0.016
   0.00000000  0.00000000  0.40000000       0.016
   0.20000000  0.00000000  0.40000000       0.016
   0.40000000  0.00000000  0.40000000       0.016
  -0.40000000  0.00000000  0.40000000       0.016
  -0.20000000  0.00000000  0.40000000       0.016
   0.00000000  0.20000000  0.40000000       0.016
   0.20000000  0.20000000  0.40000000       0.016
   0.40000000  0.20000000  0.40000000       0.016
  -0.40000000  0.20000000  0.40000000       0.016
  -0.20000000  0.20000000  0.40000000       0.016
   0.00000000  0.40000000  0.40000000       0.016
   0.20000000  0.40000000  0.40000000       0.016
   0.40000000  0.40000000  0.40000000       0.016
  -0.40000000  0.40000000  0.40000000       0.016
  -0.20000000  0.40000000  0.40000000       0.016
   0.00000000 -0.40000000  0.40000000       0.016
   0.20000000 -0.40000000  0.40000000       0.016
   0.40000000 -0.40000000  0.40000000       0.016
  -0.40000000 -0.40000000  0.40000000       0.016
  -0.20000000 -0.40000000  0.40000000       0.016
   0.00000000 -0.20000000  0.40000000       0.016
   0.20000000 -0.20000000  0.40000000       0.016
   0.40000000 -0.20000000  0.40000000       0.016
  -0.40000000 -0.20000000  0.40000000       0.016
  -0.20000000 -0.20000000  0.40000000       0.016
 
 position of ions in fractional coordinates (direct lattice) 
   0.01000000  0.02000000  0.03000000
   0.50000000  0.50000000  0.50000000
   0.50000000  0.00000000  0.00000000
   0.00000000  0.50000000  0.00000000
   0.00000000  0.00000000  0.50000000
 
 position of ions in cartesian coordinates  (Angst):
   0.03882200  0.07764400  0.11646600
   1.94110000  1.94110000  1.94110000
   1.94110000  0.00000000  0.00000000
   0.00000000  1.94110000  0.00000000
   0.00000000  0.00000000  1.94110000
 


--------------------------------------------------------------------------------------------------------


 k-point  1 :   0.0000 0.0000 0.0000  plane waves:    1045
 k-point  2 :   0.2000 0.0000 0.0000  plane waves:    1069
 k-point  3 :   0.4000 0.0000 0.0000  plane waves:    1064
 k-point  4 :   0.0000 0.2000 0.0000  plane waves:    1069
 k-point  5 :   0.2000 0.2000 0.0000  plane waves:    1073
 k-point  6 :   0.4000 0.2000 0.0000  plane waves:    1072
 k-point  7 :  -0.4000 0.2000 0.0000  plane waves:    1072
 k-point  8 :  -0.2000 0.2000 0.0000  plane waves:    1073
 k-point  9 :   0.0000 0.4000 0.0000  plane waves:    1064
 k-point 10 :   0.2000 0.4000 0.0000  plane waves:    1072
 k-point 11 :   0.4000 0.4000 0.0000  plane waves:    1063
 k-point 12 :  -0.4000 0.4000 0.0000  plane waves:    1063
 k-point 13 :  -0.2000 0.4000 0.0000  plane waves:    1072
 k-point 14 :   0.0000 0.0000 0.2000  plane waves:    1069
 k-point 15 :   0.2000 0.0000 0.2000  plane waves:    1073
 k-point 16 :   0.4000 0.0000 0.2000  plane waves:    1072
 k-point 17 :  -0.4000 0.0000 0.2000  plane waves:    1072
 k-point 18 :  -0.2000 0.0000 0.2000  plane waves:    1073
 k-point 19 :   0.0000 0.2000 0.2000  plane waves:    1073
 k-point 20 :   0.2000 0.2000 0.2000  plane waves:    1066
 k-point 21 :   0.4000 0.2000 0.2000  plane waves:    1068
 k-point 22 :  -0.4000 0.2000 0.2000  plane waves:    1068
 k-point 23 :  -0.2000 0.2000 0.2000  plane waves:    1066
 k-point 24 :   0.0000 0.4000 0.2000  plane waves:    1072
 k-point 25 :   0.2000 0.4000 0.2000  plane waves:    1068
 k-point 26 :   0.4000 0.4000 0.2000  plane waves:    1054
 k-point 27 :  -0.4000 0.4000 0.2000  plane waves:    1054
 k-point 28 :  -0.2000 0.4000 0.2000  plane waves:    1068
 k-point 29 :   0.0000-0.4000 0.2000  plane waves:    1072
 k-point 30 :   0.2000-0.4000 0.2000  plane waves:    1068
 k-point 31 :   0.4000-0.4000 0.2000  plane waves:    1054
 k-point 32 :  -0.4000-0.4000 0.2000  plane waves:    1054
 k-point 33 :  -0.2000-0.4000 0.2000  plane waves:    1068
 k-point 34 :   0.0000-0.2000 0.2000  plane waves:    1073
 k-point 35 :   0.2000-0.2000 0.2000  plane waves:    1066
 k-point 36 :   0.4000-0.2000 0.2000  plane waves:    1068
 k-point 37 :  -0.4000-0.2000 0.2000  plane waves:    1068
 k-point 38 :  -0.2000-0.2000 0.2000  plane waves:    1066
 k-point 39 :   0.0000 0.0000 0.4000  plane waves:    1064
 k-point 40 :   0.2000 0.0000 0.4000  plane waves:    1072
 k-point 41 :   0.4000 0.0000 0.4000  plane waves:    1063
 k-point 42 :  -0.4000 0.0000 0.4000  plane waves:    1063
 k-point 43 :  -0.2000 0.0000 0.4000  plane waves:    1072
 k-point 44 :   0.0000 0.2000 0.4000  plane waves:    1072
 k-point 45 :   0.2000 0.2000 0.4000  plane waves:    1068
 k-point 46 :   0.4000 0.2000 0.4000  plane waves:    1054
 k-point 47 :  -0.4000 0.2000 0.4000  plane waves:    1054
 k-point 48 :  -0.2000 0.2000 0.4000  plane waves:    1068
 k-point 49 :   0.0000 0.4000 0.4000  plane waves:    1063
 k-point 50 :   0.2000 0.4000 0.4000  plane waves:    1054
 k-point 51 :   0.4000 0.4000 0.4000  plane waves:    1058
 k-point 52 :  -0.4000 0.4000 0.4000  plane waves:    1058
 k-point 53 :  -0.2000 0.4000 0.4000  plane waves:    1054
 k-point 54 :   0.0000-0.4000 0.4000  plane waves:    1063
 k-point 55 :   0.2000-0.4000 0.4000  plane waves:    1054
 k-point 56 :   0.4000-0.4000 0.4000  plane waves:    1058
 k-point 57 :  -0.4000-0.4000 0.4000  plane waves:    1058
 k-point 58 :  -0.2000-0.4000 0.4000  plane waves:    1054
 k-point 59 :   0.0000-0.2000 0.4000  plane waves:    1072
 k-point 60 :   0.2000-0.2000 0.4000  plane waves:    1068
 k-point 61 :   0.4000-0.2000 0.4000  plane waves:    1054
 k-point 62 :  -0.4000-0.2000 0.4000  plane waves:    1054
 k-point 63 :  -0.2000-0.2000 0.4000  plane waves:    1068

 maximum and minimum number of plane-waves per node :      1073     1045

 maximum number of plane-waves:      1073
 maximum index in each direction: 
   IXMAX=    6   IYMAX=    6   IZMAX=    6
   IXMIN=   -6   IYMIN=   -6   IZMIN=   -6

 WARNING: aliasing errors must be expected set NGX to  26 to avoid them
 WARNING: aliasing errors must be expected set NGY to  26 to avoid them
 WARNING: aliasing errors must be expected set NGZ to  26 to avoid them
 aliasing errors are usually negligible using standard VASP settings
 and one can safely disregard these warnings

 serial   3D FFT for wavefunctions
 parallel 3D FFT for charge:
    minimum data exchange during FFTs selected (reduces bandwidth)


 total amount of memory used by VASP on root node    61338. kBytes
========================================================================

   base      :      30000. kBytes
   nonl-proj :      29425. kBytes
   fftplans  :        145. kBytes
   grid      :        538. kBytes
   one-center:         77. kBytes
   wavefun   :       1153. kBytes
 
     INWAV:  cpu time    0.00: real time    0.00
 Broyden mixing: mesh for mixing (old mesh)
   NGX = 13   NGY = 13   NGZ = 13
  (NGX  = 40   NGY  = 40   NGZ  = 40)
  gives a total of   2197 points

 initial charge density was supplied:
 charge density of overlapping atoms calculated
 number of electron      36.0000000 magnetization 
 keeping initial charge density in first step


--------------------------------------------------------------------------------------------------------


 Maximum index for augmentation-charges          517 (set IRDMAX)


--------------------------------------------------------------------------------------------------------


 First call to EWALD:  gamma=   0.457
 Maximum number of real-space cells 3x 3x 3
 Maximum number of reciprocal cells 3x 3x 3

 FEWALD executed in parallel
    FEWALD:  cpu time    0.00: real time    0.00


----------------------------------------- Iteration    1(   1)  ---------------------------------------


    POTLOK:  cpu time    0.01: real time    0.01
    SETDIJ:  cpu time    0.00: real time    0.00
     EDDAV:  cpu time    0.59: real time    0.59
       DOS:  cpu time    0.00: real time    0.00
    --------------------------------------------
      LOOP:  cpu time    0.60: real time    0.60

 eigenvalue-minimisations  :  2772
 total energy-change (2. order) : 0.2120691E+03  (-0.1633803E+04)
 number of electron      36.0000000 magnetization 
 augmentation part       36.0000000 magnetization 

 Free energy of the ion-electron system (eV)
  ---------------------------------------------------
  alpha Z        PSCENC =       166.69949767
  Ewald energy   TEWEN  =     -2274.95761532
  -Hartree energ DENC   =      -674.46957666
  -exchange      EXHF   =         0.00000000
  -V(xc)+E(xc)   XCENC  =       135.82473810
  PAW double counting   =      2297.08385515    -2300.16057493
  entropy T*S    EENTRO =         0.00270624
  eigenvalues    EBANDS =       -90.00666423
  atomic energy  EATOM  =      2952.05274943
  ---------------------------------------------------
  free energy    TOTEN  =       212.06911544 eV

  energy without entropy =      212.06640920  energy(sigma->0) =      212.06821336


--------------------------------------------------------------------------------------------------------




----------------------------------------- Iteration    1(   2)  ---------------------------------------


     EDDAV:  cpu time    1.21: real time    1.21
       DOS:  cpu time    0.00: real time    0.00
    --------------------------------------------
      LOOP:  cpu time    1.22: real time    1.22

 eigenvalue-minimisations  :  5280
 total energy-change (2. order) :-0.2549470E+03  (-0.2513254E+03)
 number of electron      36.0000000 magnetization 
 augmentation part       36.0000000 magnetization 

 Free energy of the ion-electron system (eV)
  ---------------------------------------------------
  alpha Z        PSCENC =       166.69949767
  Ewald energy   TEWEN  =     -2274.95761532
  -Hartree energ DENC   =      -674.46957666
  -exchange      EXHF   =         0.00000000
  -V(xc)+E(xc)   XCENC  =       135.82473810
  PAW double counting   =      2297.08385515    -2300.16057493
  entropy T*S    EENTRO =         0.00064815
  eigenvalues    EBANDS =      -344.95160460
  atomic energy  EATOM  =      2952.05274943
  ---------------------------------------------------
  free energy    TOTEN  =       -42.87788302 eV

  energy without entropy =      -42.87853117  energy(sigma->0) =      -42.87809907


--------------------------------------------------------------------------------------------------------




----------------------------------------- Iteration    1(   3)  ---------------------------------------


     EDDAV:  cpu time    0.62: real time    0.62
       DOS:  cpu time    0.00: real time    0.00
    --------------------------------------------
      LOOP:  cpu time    0.62: real time    0.62

 eigenvalue-minimisations  :  2926
 total energy-change (2. order) :-0.6698688E+01  (-0.6441548E+01)
 number of electron      36.0000000 magnetization 
 augmentation part       36.0000000 magnetization 

 Free energy of the ion-electron system (eV)
  ---------------------------------------------------
  alpha Z        PSCENC =       166.69949767
  Ewald energy   TEWEN  =     -2274.95761532
  -Hartree energ DENC   =      -674.46957666
  -exchange      EXHF   =         0.00000000
  -V(xc)+E(xc)   XCENC  =       135.82473810
  PAW double counting   =      2297.08385515    -2300.16057493
  entropy T*S    EENTRO =         0.00775937
  eigenvalues    EBANDS =      -351.65740377
  atomic energy  EATOM  =      2952.05274943
  ---------------------------------------------------
  free energy    TOTEN  =       -49.57657097 eV

  energy without entropy =      -49.58433034  energy(sigma->0) =      -49.57915743


--------------------------------------------------------------------------------------------------------




----------------------------------------- Iteration    1(   4)  ---------------------------------------


     EDDAV:  cpu time    1.17: real time    1.17
       DOS:  cpu time    0.00: real time    0.00
    --------------------------------------------
      LOOP:  cpu time    1.17: real time    1.17

 eigenvalue-minimisations  :  5302
 total energy-change (2. order) :-0.8284187E-01  (-0.8217367E-01)
 number of electron      36.0000000 magnetization 
 augmentation part       36.0000000 magnetization 

 Free energy of the ion-electron system (eV)
  ---------------------------------------------------
  alpha Z        PSCENC =       166.69949767
  Ewald energy   TEWEN  =     -2274.95761532
  -Hartree energ DENC   =      -674.46957666
  -exchange      EXHF   =         0.00000000
  -V(xc)+E(xc)   XCENC  =       135.82473810
  PAW double counting   =      2297.08385515    -2300.16057493
  entropy T*S    EENTRO =         0.00756659
  eigenvalues    EBANDS =      -351.74005286
  atomic energy  EATOM  =      2952.05274943
  ---------------------------------------------------
  free energy    TOTEN  =       -49.65941284 eV

  energy without entropy =      -49.66697943  energy(sigma->0) =      -49.66193504


--------------------------------------------------------------------------------------------------------




----------------------------------------- Iteration    1(   5)  ---------------------------------------


     EDDAV:  cpu time    0.56: real time    0.56
       DOS:  cpu time    0.00: real time    0.00
    CHARGE:  cpu time    0.01: real time    0.01
    MIXING:  cpu time    0.00: real time    0.00
    --------------------------------------------
      LOOP:  cpu time    0.57: real time    0.57

 eigenvalue-minimisations  :  2992
 total energy-change (2. order) :-0.4532057E-03  (-0.4531895E-03)
 number of electron      36.0000087 magnetization 
 augmentation part       10.9457171 magnetization 

 Broyden mixing:
  rms(total) = 0.32097E+01    rms(broyden)= 0.32094E+01
  rms(prec ) = 0.54131E+01
  weight for this iteration     100.00

 Free energy of the ion-electron system (eV)
  ---------------------------------------------------
  alpha Z        PSCENC =       166.69949767
  Ewald energy   TEWEN  =     -2274.95761532
  -Hartree energ DENC   =      -674.46957666
  -exchange      EXHF   =         0.00000000
  -V(xc)+E(xc)   XCENC  =       135.82473810
  PAW double counting   =      2297.08385515    -2300.16057493
  entropy T*S    EENTRO =         0.00756740
  eigenvalues    EBANDS =      -351.74050688
  atomic energy  EATOM  =      2952.05274943
  ---------------------------------------------------
  free energy    TOTEN  =       -49.65986605 eV

  energy without entropy =      -49.66743345  energy(sigma->0) =      -49.66238852


--------------------------------------------------------------------------------------------------------




----------------------------------------- Iteration    1(   6)  ---------------------------------------


    POTLOK:  cpu time    0.00: real time    0.00
    SETDIJ:  cpu time    0.00: real time    0.00
     EDDAV:  cpu time    1.19: real time    1.19
       DOS:  cpu time    0.00: real time    0.00
    CHARGE:  cpu time    0.03: real time    0.03
    MIXING:  cpu time    0.00: real time    0.00
    --------------------------------------------
      LOOP:  cpu time    1.22: real time    1.22

 eigenvalue-minimisations  :  5258
 total energy-change (2. order) : 0.9051105E+01  (-0.8131490E+01)
 number of electron      36.0000066 magnetization 
 augmentation part       11.1521188 magnetization 

 Broyden mixing:
  rms(total) = 0.10619E+01    rms(broyden)= 0.10612E+01
  rms(prec ) = 0.16516E+01
  weight for this iteration     100.00

 eigenvalues of (default mixing * dielectric matrix)
  average eigenvalue GAMMA=   0.9973
  0.9973

 Free energy of the ion-electron system (eV)
  ---------------------------------------------------
  alpha Z        PSCENC =       166.69949767
  Ewald energy   TEWEN  =     -2274.95761532
  -Hartree energ DENC   =      -695.14154348
  -exchange      EXHF   =         0.00000000
  -V(xc)+E(xc)   XCENC  =       138.35847841
  PAW double counting   =      2801.93719469    -2807.76080737
  entropy T*S    EENTRO =         0.00709731
  eigenvalues    EBANDS =      -321.80381262
  atomic energy  EATOM  =      2952.05274943
  ---------------------------------------------------
  free energy    TOTEN  =       -40.60876128 eV

  energy without entropy =      -40.61585858  energy(sigma->0) =      -40.61112704


--------------------------------------------------------------------------------------------------------




----------------------------------------- Iteration    1(   7)  ---------------------------------------


    POTLOK:  cpu time    0.00: real time    0.00
    SETDIJ:  cpu time    0.00: real time    0.00
     EDDAV:  cpu time    0.66: real time    0.66
       DOS:  cpu time    0.00: real time    0.00
    CHARGE:  cpu time    0.01: real time    0.01
    MIXING:  cpu time    0.00: real time    0.00
    --------------------------------------------
      LOOP:  cpu time    0.68: real time    0.68

 eigenvalue-minimisations  :  3454
 total energy-change (2. order) : 0.4657778E+00  (-0.7659929E+00)
 number of electron      36.0000072 magnetization 
 augmentation part       11.0343285 magnetization 

 Broyden mixing:
  rms(total) = 0.85897E+00    rms(broyden)= 0.85895E+00
  rms(prec ) = 0.10701E+01
  weight for this iteration     100.00

 eigenvalues of (default mixing * dielectric matrix)
  average eigenvalue GAMMA=   1.7484
  0.7314  2.7654

 Free energy of the ion-electron system (eV)
  ---------------------------------------------------
  alpha Z        PSCENC =       166.69949767
  Ewald energy   TEWEN  =     -2274.95761532
  -Hartree energ DENC   =      -687.24360911
  -exchange      EXHF   =         0.00000000
  -V(xc)+E(xc)   XCENC  =       137.60398435
  PAW double counting   =      3042.94205750    -3048.63680921
  entropy T*S    EENTRO =         0.00678004
  eigenvalues    EBANDS =      -328.61001882
  atomic energy  EATOM  =      2952.05274943
  ---------------------------------------------------
  free energy    TOTEN  =       -40.14298346 eV

  energy without entropy =      -40.14976350  energy(sigma->0) =      -40.14524348


--------------------------------------------------------------------------------------------------------




----------------------------------------- Iteration    1(   8)  ---------------------------------------


    POTLOK:  cpu time    0.00: real time    0.00
    SETDIJ:  cpu time    0.00: real time    0.00
     EDDAV:  cpu time    0.93: real time    0.93
       DOS:  cpu time    0.00: real time    0.00
    CHARGE:  cpu time    0.03: real time    0.03
    MIXING:  cpu time    0.00: real time    0.00
    --------------------------------------------
      LOOP:  cpu time    0.96: real time    0.96

 eigenvalue-minimisations  :  4554
 total energy-change (2. order) :-0.9946124E-01  (-0.4624962E+00)
 number of electron      36.0000068 magnetization 
 augmentation part       11.2591943 magnetization 

 Broyden mixing:
  rms(total) = 0.55671E+00    rms(broyden)= 0.55666E+00
  rms(prec ) = 0.10142E+01
  weight for this iteration     100.00

 eigenvalues of (default mixing * dielectric matrix)
  average eigenvalue GAMMA=   1.2084
  2.3195  0.8202  0.4855

 Free energy of the ion-electron system (eV)
  ---------------------------------------------------
  alpha Z        PSCENC =       166.69949767
  Ewald energy   TEWEN  =     -2274.95761532
  -Hartree energ DENC   =      -681.38057544
  -exchange      EXHF   =         0.00000000
  -V(xc)+E(xc)   XCENC  =       137.55504001
  PAW double counting   =      3667.96723799    -3674.81993236
  entropy T*S    EENTRO =         0.00691612
  eigenvalues    EBANDS =      -333.36576281
  atomic energy  EATOM  =      2952.05274943
  ---------------------------------------------------
  free energy    TOTEN  =       -40.24244471 eV

  energy without entropy =      -40.24936082  energy(sigma->0) =      -40.24475008


--------------------------------------------------------------------------------------------------------




----------------------------------------- Iteration    1(   9)  ---------------------------------------


    POTLOK:  cpu time    0.00: real time    0.00
    SETDIJ:  cpu time    0.00: real time    0.00
     EDDAV:  cpu time    0.93: real time    0.94
       DOS:  cpu time    0.00: real time    0.00
    CHARGE:  cpu time    0.01: real time    0.01
    MIXING:  cpu time    0.00: real time    0.00
    --------------------------------------------
      LOOP:  cpu time    0.95: real time    0.95

 eigenvalue-minimisations  :  4510
 total energy-change (2. order) : 0.2034317E+00  (-0.1041693E+00)
 number of electron      36.0000070 magnetization 
 augmentation part       11.1576706 magnetization 

 Broyden mixing:
  rms(total) = 0.14955E+00    rms(broyden)= 0.14953E+00
  rms(prec ) = 0.26056E+00
  weight for this iteration     100.00

 eigenvalues of (default mixing * dielectric matrix)
  average eigenvalue GAMMA=   1.4259
  2.1471  2.1471  0.8546  0.5549

 Free energy of the ion-electron system (eV)
  ---------------------------------------------------
  alpha Z        PSCENC =       166.69949767
  Ewald energy   TEWEN  =     -2274.95761532
  -Hartree energ DENC   =      -683.99170093
  -exchange      EXHF   =         0.00000000
  -V(xc)+E(xc)   XCENC  =       137.59701926
  PAW double counting   =      3586.95515848    -3593.56044633
  entropy T*S    EENTRO =         0.00685877
  eigenvalues    EBANDS =      -330.84053403
  atomic energy  EATOM  =      2952.05274943
  ---------------------------------------------------
  free energy    TOTEN  =       -40.03901300 eV

  energy without entropy =      -40.04587178  energy(sigma->0) =      -40.04129926


--------------------------------------------------------------------------------------------------------




----------------------------------------- Iteration    1(  10)  ---------------------------------------


    POTLOK:  cpu time    0.00: real time    0.00
    SETDIJ:  cpu time    0.00: real time    0.00
     EDDAV:  cpu time    1.11: real time    1.11
       DOS:  cpu time    0.00: real time    0.00
    CHARGE:  cpu time    0.02: real time    0.02
    MIXING:  cpu time    0.00: real time    0.00
    --------------------------------------------
      LOOP:  cpu time    1.13: real time    1.13

 eigenvalue-minimisations  :  5148
 total energy-change (2. order) : 0.1359836E-01  (-0.1892186E-01)
 number of electron      36.0000071 magnetization 
 augmentation part       11.1144715 magnetization 

 Broyden mixing:
  rms(total) = 0.39742E-01    rms(broyden)= 0.39682E-01
  rms(prec ) = 0.64014E-01
  weight for this iteration     100.00

 eigenvalues of (default mixing * dielectric matrix)
  average eigenvalue GAMMA=   1.3225
  2.4337  1.8666  0.8713  0.8713  0.5697

 Free energy of the ion-electron system (eV)
  ---------------------------------------------------
  alpha Z        PSCENC =       166.69949767
  Ewald energy   TEWEN  =     -2274.95761532
  -Hartree energ DENC   =      -686.63573231
  -exchange      EXHF   =         0.00000000
  -V(xc)+E(xc)   XCENC  =       137.70875429
  PAW double counting   =      3565.75938684    -3572.26768817
  entropy T*S    EENTRO =         0.00686277
  eigenvalues    EBANDS =      -328.39162984
  atomic energy  EATOM  =      2952.05274943
  ---------------------------------------------------
  free energy    TOTEN  =       -40.02541464 eV

  energy without entropy =      -40.03227741  energy(sigma->0) =      -40.02770223


--------------------------------------------------------------------------------------------------------




----------------------------------------- Iteration    1(  11)  ---------------------------------------


    POTLOK:  cpu time    0.00: real time    0.00
    SETDIJ:  cpu time    0.00: real time    0.00
     EDDAV:  cpu time    0.58: real time    0.58
       DOS:  cpu time    0.00: real time    0.00
    CHARGE:  cpu time    0.01: real time    0.01
    MIXING:  cpu time    0.00: real time    0.00
    --------------------------------------------
      LOOP:  cpu time    0.60: real time    0.60

 eigenvalue-minimisations  :  2970
 total energy-change (2. order) : 0.3549975E-03  (-0.4364225E-03)
 number of electron      36.0000071 magnetization 
 augmentation part       11.1195959 magnetization 

 Broyden mixing:
  rms(total) = 0.10595E-01    rms(broyden)= 0.10590E-01
  rms(prec ) = 0.21501E-01
  weight for this iteration     100.00

 eigenvalues of (default mixing * dielectric matrix)
  average eigenvalue GAMMA=   1.3171
  2.5687  1.8452  1.3651  0.8817  0.5650  0.6771

 Free energy of the ion-electron system (eV)
  ---------------------------------------------------
  alpha Z        PSCENC =       166.69949767
  Ewald energy   TEWEN  =     -2274.95761532
  -Hartree energ DENC   =      -686.57397484
  -exchange      EXHF   =         0.00000000
  -V(xc)+E(xc)   XCENC  =       137.71302135
  PAW double counting   =      3578.81975475    -3585.34583793
  entropy T*S    EENTRO =         0.00686169
  eigenvalues    EBANDS =      -328.43951645
  atomic energy  EATOM  =      2952.05274943
  ---------------------------------------------------
  free energy    TOTEN  =       -40.02505964 eV

  energy without entropy =      -40.03192133  energy(sigma->0) =      -40.02734687


--------------------------------------------------------------------------------------------------------




----------------------------------------- Iteration    1(  12)  ---------------------------------------


    POTLOK:  cpu time    0.00: real time    0.00
    SETDIJ:  cpu time    0.00: real time    0.00
     EDDAV:  cpu time    1.13: real time    1.13
       DOS:  cpu time    0.00: real time    0.00
    --------------------------------------------
      LOOP:  cpu time    1.14: real time    1.14

 eigenvalue-minimisations  :  5280
 total energy-change (2. order) : 0.1518898E-04  (-0.8931191E-04)
 number of electron      36.0000071 magnetization 
 augmentation part       11.1195959 magnetization 

 Free energy of the ion-electron system (eV)
  ---------------------------------------------------
  alpha Z        PSCENC =       166.69949767
  Ewald energy   TEWEN  =     -2274.95761532
  -Hartree energ DENC   =      -686.57593319
  -exchange      EXHF   =         0.00000000
  -V(xc)+E(xc)   XCENC  =       137.71683972
  PAW double counting   =      3580.98763335    -3587.51522044
  entropy T*S    EENTRO =         0.00686286
  eigenvalues    EBANDS =      -328.43985854
  atomic energy  EATOM  =      2952.05274943
  ---------------------------------------------------
  free energy    TOTEN  =       -40.02504446 eV

  energy without entropy =      -40.03190731  energy(sigma->0) =      -40.02733207


--------------------------------------------------------------------------------------------------------




 average (electrostatic) potential at core
  the test charge radii are     1.0397  1.2658  0.7215
  (the norm of the test charge is              1.0000)
       1 -52.9525       2 -45.6578       3 -70.0552       4 -70.1013       5 -70.1712
 
 
 
 E-fermi :   3.6702     XC(G=0): -11.0069     alpha+bet :-13.2781


 k-point     1 :       0.0000    0.0000    0.0000
  band No.  band energies     occupation 
      1     -28.9155      2.00000
      2     -28.8886      2.00000
      3     -28.8739      2.00000
      4     -16.6291      2.00000
      5     -16.6259      2.00000
      6     -16.6202      2.00000
      7     -13.8633      2.00000
      8     -12.7813      2.00000
      9     -12.7314      2.00000
     10       0.6597      2.00000
     11       0.6714      2.00000
     12       0.6963      2.00000
     13       2.4077      2.00000
     14       2.4119      2.00000
     15       2.5568      2.00000
     16       3.0201      2.00004
     17       3.0915      2.00033
     18       3.1341      2.00100
     19       5.8174     -0.00000
     20       5.9909     -0.00000
     21       6.0732     -0.00000
     22       8.2688     -0.00000

 k-point     2 :       0.2000    0.0000    0.0000
  band No.  band energies     occupation 
      1     -28.9146      2.00000
      2     -28.9005      2.00000
      3     -28.8873      2.00000
      4     -16.7119      2.00000
      5     -16.6226      2.00000
      6     -16.6166      2.00000
      7     -13.6504      2.00000
      8     -12.7677      2.00000
      9     -12.6310      2.00000
     10       0.2502      2.00000
     11       0.6926      2.00000
     12       0.7204      2.00000
     13       1.8250      2.00000
     14       1.9813      2.00000
     15       2.2812      2.00000
     16       2.3507      2.00000
     17       2.9036      2.00000
     18       2.9902      2.00002
     19       6.1173     -0.00000
     20       6.4686     -0.00000
     21       6.5596     -0.00000
     22       8.4162     -0.00000

 k-point     3 :       0.4000    0.0000    0.0000
  band No.  band energies     occupation 
      1     -28.9430      2.00000
      2     -28.9126      2.00000
      3     -28.8856      2.00000
      4     -16.8355      2.00000
      5     -16.6167      2.00000
      6     -16.6106      2.00000
      7     -13.3080      2.00000
      8     -12.7441      2.00000
      9     -12.4486      2.00000
     10      -0.4720      2.00000
     11       0.8204      2.00000
     12       0.8516      2.00000
     13       1.0265      2.00000
     14       1.3140      2.00000
     15       1.5033      2.00000
     16       1.8730      2.00000
     17       2.7166      2.00000
     18       2.8727      2.00000
     19       6.2322     -0.00000
     20       7.4286     -0.00000
     21       7.5398     -0.00000
     22       8.4184     -0.00000

 k-point     4 :       0.0000    0.2000    0.0000
  band No.  band energies     occupation 
      1     -28.9185      2.00000
      2     -28.9112      2.00000
      3     -28.8728      2.00000
      4     -16.7085      2.00000
      5     -16.6252      2.00000
      6     -16.6171      2.00000
      7     -13.6462      2.00000
      8     -12.7529      2.00000
      9     -12.6486      2.00000
     10       0.2430      2.00000
     11       0.6776      2.00000
     12       0.7118      2.00000
     13       1.8152      2.00000
     14       1.9992      2.00000
     15       2.2615      2.00000
     16       2.3517      2.00000
     17       2.9046      2.00000
     18       3.0287      2.00006
     19       6.0366     -0.00000
     20       6.5300     -0.00000
     21       6.5960     -0.00000
     22       8.3769     -0.00000

 k-point     5 :       0.2000    0.2000    0.0000
  band No.  band energies     occupation 
      1     -28.9175      2.00000
      2     -28.9105      2.00000
      3     -28.8991      2.00000
      4     -16.7159      2.00000
      5     -16.6717      2.00000
      6     -16.6133      2.00000
      7     -13.4703      2.00000
      8     -12.7068      2.00000
      9     -12.5773      2.00000
     10       0.0364      2.00000
     11       0.4503      2.00000
     12       0.7264      2.00000
     13       1.1320      2.00000
     14       1.6843      2.00000
     15       1.9342      2.00000
     16       2.3651      2.00000
     17       2.8140      2.00000
     18       2.8617      2.00000
     19       6.4939     -0.00000
     20       6.6709     -0.00000
     21       6.8185     -0.00000
     22       8.8571     -0.00000

 k-point     6 :       0.4000    0.2000    0.0000
  band No.  band energies     occupation 
      1     -28.9422      2.00000
      2     -28.9158      2.00000
      3     -28.9083      2.00000
      4     -16.8037      2.00000
      5     -16.6655      2.00000
      6     -16.6070      2.00000
      7     -13.2109      2.00000
      8     -12.6504      2.00000
      9     -12.3978      2.00000
     10      -0.4987      2.00000
     11      -0.0321      2.00000
     12       0.5291      2.00000
     13       0.8318      2.00000
     14       1.1752      2.00000
     15       1.6109      2.00000
     16       2.0569      2.00000
     17       2.6548      2.00000
     18       2.8214      2.00000
     19       6.6794     -0.00000
     20       7.4555     -0.00000
     21       7.5608     -0.00000
     22       8.9612     -0.00000

 k-point     7 :      -0.4000    0.2000    0.0000
  band No.  band energies     occupation 
      1     -28.9422      2.00000
      2     -28.9158      2.00000
      3     -28.9083      2.00000
      4     -16.8035      2.00000
      5     -16.6657      2.00000
      6     -16.6069      2.00000
      7     -13.2108      2.00000
      8     -12.6501      2.00000
      9     -12.3979      2.00000
     10      -0.5166      2.00000
     11      -0.0448      2.00000
     12       0.5645      2.00000
     13       0.8258      2.00000
     14       1.1816      2.00000
     15       1.6135      2.00000
     16       2.0507      2.00000
     17       2.6556      2.00000
     18       2.8239      2.00000
     19       6.6761     -0.00000
     20       7.4502     -0.00000
     21       7.5655     -0.00000
     22       8.9617     -0.00000

 k-point     8 :      -0.2000    0.2000    0.0000
  band No.  band energies     occupation 
      1     -28.9175      2.00000
      2     -28.9105      2.00000
      3     -28.8990      2.00000
      4     -16.7146      2.00000
      5     -16.6730      2.00000
      6     -16.6133      2.00000
      7     -13.4699      2.00000
      8     -12.7066      2.00000
      9     -12.5776      2.00000
     10       0.0206      2.00000
     11       0.4097      2.00000
     12       0.7231      2.00000
     13       1.1934      2.00000
     14       1.6890      2.00000
     15       1.9407      2.00000
     16       2.3485      2.00000
     17       2.8151      2.00000
     18       2.8796      2.00000
     19       6.4664     -0.00000
     20       6.6789     -0.00000
     21       6.8241     -0.00000
     22       8.8608     -0.00000

 k-point     9 :       0.0000    0.4000    0.0000
  band No.  band energies     occupation 
      1     -28.9584      2.00000
      2     -28.9120      2.00000
      3     -28.8711      2.00000
      4     -16.8317      2.00000
      5     -16.6194      2.00000
      6     -16.6112      2.00000
      7     -13.2951      2.00000
      8     -12.7249      2.00000
      9     -12.4766      2.00000
     10      -0.5138      2.00000
     11       0.7941      2.00000
     12       0.8137      2.00000
     13       1.0737      2.00000
     14       1.3339      2.00000
     15       1.4481      2.00000
     16       1.8620      2.00000
     17       2.7785      2.00000
     18       2.9305      2.00000
     19       6.1486     -0.00000
     20       7.4877     -0.00000
     21       7.5523     -0.00000
     22       8.3832     -0.00000

 k-point    10 :       0.2000    0.4000    0.0000
  band No.  band energies     occupation 
      1     -28.9576      2.00000
      2     -28.9112      2.00000
      3     -28.8976      2.00000
      4     -16.8001      2.00000
      5     -16.6687      2.00000
      6     -16.6070      2.00000
      7     -13.2052      2.00000
      8     -12.6269      2.00000
      9     -12.4243      2.00000
     10      -0.5358      2.00000
     11      -0.0492      2.00000
     12       0.5579      2.00000
     13       0.8111      2.00000
     14       1.1801      2.00000
     15       1.5988      2.00000
     16       2.0712      2.00000
     17       2.7052      2.00000
     18       2.8151      2.00000
     19       6.6168     -0.00000
     20       7.5003     -0.00000
     21       7.5673     -0.00000
     22       8.9438     -0.00000

 k-point    11 :       0.4000    0.4000    0.0000
  band No.  band energies     occupation 
      1     -28.9563      2.00000
      2     -28.9408      2.00000
      3     -28.9091      2.00000
      4     -16.7562      2.00000
      5     -16.7394      2.00000
      6     -16.6000      2.00000
      7     -13.1463      2.00000
      8     -12.3788      2.00000
      9     -12.3133      2.00000
     10      -0.8770      2.00000
     11      -0.5810      2.00000
     12      -0.2895      2.00000
     13       0.8270      2.00000
     14       0.9895      2.00000
     15       1.6594      2.00000
     16       1.8046      2.00000
     17       2.2004      2.00000
     18       3.4828      2.03450
     19       7.4926     -0.00000
     20       7.5728     -0.00000
     21       7.8526     -0.00000
     22       9.1581      0.00000

 k-point    12 :      -0.4000    0.4000    0.0000
  band No.  band energies     occupation 
      1     -28.9563      2.00000
      2     -28.9407      2.00000
      3     -28.9091      2.00000
      4     -16.7549      2.00000
      5     -16.7407      2.00000
      6     -16.6000      2.00000
      7     -13.1464      2.00000
      8     -12.3780      2.00000
      9     -12.3139      2.00000
     10      -0.8963      2.00000
     11      -0.5886      2.00000
     12      -0.2606      2.00000
     13       0.8183      2.00000
     14       0.9991      2.00000
     15       1.6680      2.00000
     16       1.7933      2.00000
     17       2.2020      2.00000
     18       3.4826      2.03480
     19       7.4894     -0.00000
     20       7.5717     -0.00000
     21       7.8566     -0.00000
     22       9.1576      0.00000

 k-point    13 :      -0.2000    0.4000    0.0000
  band No.  band energies     occupation 
      1     -28.9576      2.00000
      2     -28.9112      2.00000
      3     -28.8976      2.00000
      4     -16.7999      2.00000
      5     -16.6690      2.00000
      6     -16.6070      2.00000
      7     -13.2050      2.00000
      8     -12.6265      2.00000
      9     -12.4245      2.00000
     10      -0.5532      2.00000
     11      -0.0594      2.00000
     12       0.5902      2.00000
     13       0.8055      2.00000
     14       1.1863      2.00000
     15       1.6011      2.00000
     16       2.0655      2.00000
     17       2.7048      2.00000
     18       2.8185      2.00000
     19       6.6137     -0.00000
     20       7.4924     -0.00000
     21       7.5744     -0.00000
     22       8.9444     -0.00000

 k-point    14 :       0.0000    0.0000    0.2000
  band No.  band energies     occupation 
      1     -28.9421      2.00000
      2     -28.8877      2.00000
      3     -28.8728      2.00000
      4     -16.7036      2.00000
      5     -16.6252      2.00000
      6     -16.6217      2.00000
      7     -13.6394      2.00000
      8     -12.7253      2.00000
      9     -12.6806      2.00000
     10       0.2341      2.00000
     11       0.6683      2.00000
     12       0.6802      2.00000
     13       1.8765      2.00000
     14       1.9562      2.00000
     15       2.2524      2.00000
     16       2.2748      2.00000
     17       2.9962      2.00002
     18       3.0611      2.00014
     19       5.8943     -0.00000
     20       6.6294     -0.00000
     21       6.6619     -0.00000
     22       8.3177     -0.00000

 k-point    15 :       0.2000    0.0000    0.2000
  band No.  band energies     occupation 
      1     -28.9411      2.00000
      2     -28.8996      2.00000
      3     -28.8864      2.00000
      4     -16.7139      2.00000
      5     -16.6688      2.00000
      6     -16.6179      2.00000
      7     -13.4596      2.00000
      8     -12.6988      2.00000
      9     -12.5938      2.00000
     10       0.0314      2.00000
     11       0.4347      2.00000
     12       0.6976      2.00000
     13       1.0971      2.00000
     14       1.7060      2.00000
     15       2.0678      2.00000
     16       2.3598      2.00000
     17       2.7641      2.00000
     18       2.8002      2.00000
     19       6.4939     -0.00000
     20       6.7087     -0.00000
     21       6.8550     -0.00000
     22       8.7962     -0.00000

 k-point    16 :       0.4000    0.0000    0.2000
  band No.  band energies     occupation 
      1     -28.9429      2.00000
      2     -28.9387      2.00000
      3     -28.8848      2.00000
      4     -16.8038      2.00000
      5     -16.6608      2.00000
      6     -16.6116      2.00000
      7     -13.1877      2.00000
      8     -12.6702      2.00000
      9     -12.3992      2.00000
     10      -0.4980      2.00000
     11      -0.0635      2.00000
     12       0.5274      2.00000
     13       0.8024      2.00000
     14       1.2109      2.00000
     15       1.6291      2.00000
     16       2.1529      2.00000
     17       2.5485      2.00000
     18       2.7903      2.00000
     19       6.7500     -0.00000
     20       7.4506     -0.00000
     21       7.5657     -0.00000
     22       8.9436     -0.00000

 k-point    17 :      -0.4000    0.0000    0.2000
  band No.  band energies     occupation 
      1     -28.9431      2.00000
      2     -28.9385      2.00000
      3     -28.8848      2.00000
      4     -16.8035      2.00000
      5     -16.6611      2.00000
      6     -16.6116      2.00000
      7     -13.1874      2.00000
      8     -12.6699      2.00000
      9     -12.3994      2.00000
     10      -0.5266      2.00000
     11      -0.0778      2.00000
     12       0.5778      2.00000
     13       0.7944      2.00000
     14       1.2204      2.00000
     15       1.6304      2.00000
     16       2.1467      2.00000
     17       2.5492      2.00000
     18       2.7925      2.00000
     19       6.7462     -0.00000
     20       7.4477     -0.00000
     21       7.5676     -0.00000
     22       8.9423     -0.00000

 k-point    18 :      -0.2000    0.0000    0.2000
  band No.  band energies     occupation 
      1     -28.9412      2.00000
      2     -28.8996      2.00000
      3     -28.8864      2.00000
      4     -16.7121      2.00000
      5     -16.6707      2.00000
      6     -16.6179      2.00000
      7     -13.4588      2.00000
      8     -12.6985      2.00000
      9     -12.5943      2.00000
     10       0.0047      2.00000
     11       0.3789      2.00000
     12       0.6925      2.00000
     13       1.1864      2.00000
     14       1.7132      2.00000
     15       2.0810      2.00000
     16       2.3397      2.00000
     17       2.7665      2.00000
     18       2.8170      2.00000
     19       6.4669     -0.00000
     20       6.7201     -0.00000
     21       6.8517     -0.00000
     22       8.7986     -0.00000

 k-point    19 :       0.0000    0.2000    0.2000
  band No.  band energies     occupation 
      1     -28.9413      2.00000
      2     -28.9141      2.00000
      3     -28.8718      2.00000
      4     -16.7128      2.00000
      5     -16.6666      2.00000
      6     -16.6212      2.00000
      7     -13.4534      2.00000
      8     -12.6831      2.00000
      9     -12.6147      2.00000
[...]
     17       3.4542      2.07084
     18       3.6068      1.67832
     19       7.9465     -0.00000
     20       7.9815     -0.00000
     21       7.9893     -0.00000
     22       9.6555      0.00000

 k-point    53 :      -0.2000    0.4000    0.4000
  band No.  band energies     occupation 
      1     -29.0851      2.00000
      2     -29.0842      2.00000
      3     -29.0394      2.00000
      4     -16.7036      2.00000
      5     -16.6901      2.00000
      6     -16.6074      2.00000
      7     -12.8777      2.00000
      8     -12.4040      2.00000
      9     -12.3574      2.00000
     10      -0.7933      2.00000
     11      -0.5762      2.00000
     12      -0.3879      2.00000
     13       0.1047      2.00000
     14       0.2040      2.00000
     15       0.9777      2.00000
     16       2.7173      2.00000
     17       2.7547      2.00000
     18       3.5137      2.02680
     19       7.5398     -0.00000
     20       7.5847     -0.00000
     21       7.8494     -0.00000
     22       9.7663      0.00000

 k-point    54 :       0.0000   -0.4000    0.4000
  band No.  band energies     occupation 
      1     -29.0865      2.00000
      2     -29.0854      2.00000
      3     -29.0131      2.00000
      4     -16.7220      2.00000
      5     -16.7067      2.00000
      6     -16.5713      2.00000
      7     -13.1133      2.00000
      8     -12.3881      2.00000
      9     -12.3322      2.00000
     10      -0.9101      2.00000
     11      -0.6154      2.00000
     12      -0.3812      2.00000
     13       0.8377      2.00000
     14       1.0008      2.00000
     15       1.7724      2.00000
     16       1.8535      2.00000
     17       2.1390      2.00000
     18       3.4822      2.06183
     19       7.3773     -0.00000
     20       7.4247     -0.00000
     21       7.7741     -0.00000
     22       9.0263     -0.00000

 k-point    55 :       0.2000   -0.4000    0.4000
  band No.  band energies     occupation 
      1     -29.0852      2.00000
      2     -29.0841      2.00000
      3     -29.0394      2.00000
      4     -16.7036      2.00000
      5     -16.6902      2.00000
      6     -16.6074      2.00000
      7     -12.8777      2.00000
      8     -12.4038      2.00000
      9     -12.3575      2.00000
     10      -0.7986      2.00000
     11      -0.5828      2.00000
     12      -0.3727      2.00000
     13       0.1073      2.00000
     14       0.2016      2.00000
     15       0.9742      2.00000
     16       2.7171      2.00000
     17       2.7543      2.00000
     18       3.5133      2.02742
     19       7.5438     -0.00000
     20       7.5813     -0.00000
     21       7.8500     -0.00000
     22       9.7665      0.00000

 k-point    56 :       0.4000   -0.4000    0.4000
  band No.  band energies     occupation 
      1     -29.0832      2.00000
      2     -29.0821      2.00000
      3     -29.0815      2.00000
      4     -16.6753      2.00000
      5     -16.6633      2.00000
      6     -16.6630      2.00000
      7     -12.4963      2.00000
      8     -12.4018      2.00000
      9     -12.3983      2.00000
     10      -0.7384      2.00000
     11      -0.5160      2.00000
     12      -0.4689      2.00000
     13      -0.4612      2.00000
     14      -0.3319      2.00000
     15      -0.3162      2.00000
     16       3.4521      2.07091
     17       3.4550      2.07080
     18       3.6060      1.68371
     19       7.9477     -0.00000
     20       7.9807     -0.00000
     21       7.9889     -0.00000
     22       9.6484      0.00000

 k-point    57 :      -0.4000   -0.4000    0.4000
  band No.  band energies     occupation 
      1     -29.0831      2.00000
      2     -29.0822      2.00000
      3     -29.0814      2.00000
      4     -16.6754      2.00000
      5     -16.6633      2.00000
      6     -16.6630      2.00000
      7     -12.4963      2.00000
      8     -12.4018      2.00000
      9     -12.3982      2.00000
     10      -0.7381      2.00000
     11      -0.5151      2.00000
     12      -0.4673      2.00000
     13      -0.4628      2.00000
     14      -0.3343      2.00000
     15      -0.3151      2.00000
     16       3.4526      2.07090
     17       3.4546      2.07082
     18       3.6058      1.68452
     19       7.9469     -0.00000
     20       7.9812     -0.00000
     21       7.9892     -0.00000
     22       9.6473      0.00000

 k-point    58 :      -0.2000   -0.4000    0.4000
  band No.  band energies     occupation 
      1     -29.0852      2.00000
      2     -29.0841      2.00000
      3     -29.0394      2.00000
      4     -16.7036      2.00000
      5     -16.6902      2.00000
      6     -16.6074      2.00000
      7     -12.8777      2.00000
      8     -12.4038      2.00000
      9     -12.3575      2.00000
     10      -0.7986      2.00000
     11      -0.5826      2.00000
     12      -0.3726      2.00000
     13       0.1076      2.00000
     14       0.2014      2.00000
     15       0.9737      2.00000
     16       2.7170      2.00000
     17       2.7544      2.00000
     18       3.5133      2.02745
     19       7.5438     -0.00000
     20       7.5814     -0.00000
     21       7.8501     -0.00000
     22       9.7665      0.00000

 k-point    59 :       0.0000   -0.2000    0.4000
  band No.  band energies     occupation 
      1     -29.0869      2.00000
      2     -29.0438      2.00000
      3     -29.0147      2.00000
      4     -16.7692      2.00000
      5     -16.6327      2.00000
      6     -16.5784      2.00000
      7     -13.1872      2.00000
      8     -12.6531      2.00000
      9     -12.4246      2.00000
     10      -0.5718      2.00000
     11      -0.0621      2.00000
     12       0.5282      2.00000
     13       0.8148      2.00000
     14       1.2345      2.00000
     15       1.6125      2.00000
     16       2.2867      2.00000
     17       2.5875      2.00000
     18       2.8177      2.00000
     19       6.4610     -0.00000
     20       7.3922     -0.00000
     21       7.4304     -0.00000
     22       8.7165     -0.00000

 k-point    60 :       0.2000   -0.2000    0.4000
  band No.  band energies     occupation 
      1     -29.0859      2.00000
      2     -29.0429      2.00000
      3     -29.0410      2.00000
      4     -16.7425      2.00000
      5     -16.6327      2.00000
      6     -16.6136      2.00000
      7     -13.0177      2.00000
      8     -12.6162      2.00000
      9     -12.4034      2.00000
     10      -0.5891      2.00000
     11      -0.1292      2.00000
     12       0.1921      2.00000
     13       0.3335      2.00000
     14       0.6919      2.00000
     15       1.3963      2.00000
     16       2.5759      2.00000
     17       2.6665      2.00000
     18       2.9770      2.00000
     19       6.8328     -0.00000
     20       7.4704     -0.00000
     21       7.4961     -0.00000
     22       9.6683      0.00000

 k-point    61 :       0.4000   -0.2000    0.4000
  band No.  band energies     occupation 
      1     -29.0843      2.00000
      2     -29.0836      2.00000
      3     -29.0408      2.00000
      4     -16.7037      2.00000
      5     -16.6903      2.00000
      6     -16.6072      2.00000
      7     -12.8798      2.00000
      8     -12.4030      2.00000
      9     -12.3566      2.00000
     10      -0.7926      2.00000
     11      -0.5757      2.00000
     12      -0.3871      2.00000
     13       0.1055      2.00000
     14       0.2047      2.00000
     15       0.9767      2.00000
     16       2.7173      2.00000
     17       2.7537      2.00000
     18       3.5150      2.02470
     19       7.5397     -0.00000
     20       7.5840     -0.00000
     21       7.8487     -0.00000
     22       9.7657      0.00000

 k-point    62 :      -0.4000   -0.2000    0.4000
  band No.  band energies     occupation 
      1     -29.0844      2.00000
      2     -29.0835      2.00000
      3     -29.0408      2.00000
      4     -16.7036      2.00000
      5     -16.6904      2.00000
      6     -16.6072      2.00000
      7     -12.8798      2.00000
      8     -12.4028      2.00000
      9     -12.3566      2.00000
     10      -0.7960      2.00000
     11      -0.5796      2.00000
     12      -0.3765      2.00000
     13       0.1082      2.00000
     14       0.2023      2.00000
     15       0.9727      2.00000
     16       2.7166      2.00000
     17       2.7535      2.00000
     18       3.5149      2.02491
     19       7.5432     -0.00000
     20       7.5815     -0.00000
     21       7.8493     -0.00000
     22       9.7667      0.00000

 k-point    63 :      -0.2000   -0.2000    0.4000
  band No.  band energies     occupation 
      1     -29.0859      2.00000
      2     -29.0427      2.00000
      3     -29.0412      2.00000
      4     -16.7425      2.00000
      5     -16.6327      2.00000
      6     -16.6136      2.00000
      7     -13.0177      2.00000
      8     -12.6162      2.00000
      9     -12.4034      2.00000
     10      -0.5918      2.00000
     11      -0.1289      2.00000
     12       0.1888      2.00000
     13       0.3424      2.00000
     14       0.6996      2.00000
     15       1.3864      2.00000
     16       2.5766      2.00000
     17       2.6617      2.00000
     18       2.9764      2.00000
     19       6.8389     -0.00000
     20       7.4636     -0.00000
     21       7.5020     -0.00000
     22       9.6656      0.00000


--------------------------------------------------------------------------------------------------------


 soft charge-density along one line, spin component           1
         0         1         2         3         4         5         6         7         8         9
 total charge-density along one line
 
 pseudopotential strength for first ion, spin component:           1
-30.219  -0.001  -0.000   7.091   0.000   0.000   0.000   0.002
 -0.001 -30.219  -0.000   0.000   7.091   0.000  -0.000   0.001
 -0.000  -0.000 -30.219   0.000   0.000   7.091   0.001  -0.000
  7.091   0.000   0.000   3.762  -0.000  -0.000   0.001  -0.000
  0.000   7.091   0.000  -0.000   3.762  -0.000   0.000   0.001
  0.000   0.000   7.091  -0.000  -0.000   3.762   0.001   0.000
  0.000  -0.000   0.001   0.001   0.000   0.001  -3.661  -0.000
  0.002   0.001  -0.000  -0.000   0.001   0.000  -0.000  -3.661
  0.002  -0.002   0.001  -0.001   0.001  -0.001   0.000  -0.000
 -0.000   0.000   0.002   0.000   0.001  -0.000  -0.000  -0.000
  0.003   0.000  -0.002  -0.002  -0.000   0.002   0.000   0.000
  0.000  -0.000   0.001   0.001   0.000   0.001  -3.840  -0.000
  0.002   0.001  -0.000  -0.000   0.001   0.000  -0.000  -3.840
  0.002  -0.003   0.002  -0.001   0.002  -0.001   0.000  -0.000
 -0.000   0.000   0.002   0.000   0.001  -0.000  -0.000  -0.000
  0.004   0.000  -0.003  -0.002  -0.000   0.002   0.000   0.000
  0.002   0.001   0.001  -0.000   0.000  -0.000   0.000   0.000
  0.005   0.002   0.003  -0.000   0.001  -0.000   0.000   0.000
 total augmentation occupancy for first ion, spin component:           1
  1.975  -0.000  -0.000  -0.067  -0.000  -0.000  -0.000  -0.001  -0.011   0.000  -0.020   0.001   0.001   0.010  -0.000   0.017
 -0.000   1.975  -0.000  -0.000  -0.067  -0.000   0.000  -0.001   0.020  -0.000  -0.000  -0.000   0.001  -0.018   0.000   0.000
 -0.000  -0.000   1.975  -0.000  -0.000  -0.067  -0.001   0.000  -0.007  -0.001   0.013   0.001  -0.000   0.006   0.001  -0.011
 -0.067  -0.000  -0.000   0.340  -0.000  -0.000  -0.011  -0.018  -0.078   0.000  -0.135   0.008   0.013   0.054  -0.000   0.094
 -0.000  -0.067  -0.000  -0.000   0.339  -0.000   0.000  -0.018   0.136  -0.011   0.000  -0.000   0.012  -0.094   0.008  -0.000
 -0.000  -0.000  -0.067  -0.000  -0.000   0.339  -0.018   0.000  -0.051  -0.018   0.089   0.012  -0.000   0.035   0.012  -0.061
 -0.000   0.000  -0.001  -0.011   0.000  -0.018   3.695  -0.001   0.021  -0.001   0.000  -2.295   0.000  -0.015   0.001  -0.000
 -0.001  -0.001   0.000  -0.018  -0.018   0.000  -0.001   3.702  -0.014  -0.001   0.024   0.000  -2.300   0.010   0.001  -0.018
 -0.011   0.020  -0.007  -0.078   0.136  -0.051   0.021  -0.014  13.390  -0.009   0.017  -0.015   0.010  -9.288   0.007  -0.013
  0.000  -0.000  -0.001   0.000  -0.011  -0.018  -0.001  -0.001  -0.009   3.689  -0.016   0.001   0.001   0.007  -2.292   0.011
 -0.020  -0.000   0.013  -0.135   0.000   0.089   0.000   0.024   0.017  -0.016  13.385  -0.000  -0.018  -0.013   0.012  -9.285
  0.001  -0.000   0.001   0.008  -0.000   0.012  -2.295   0.000  -0.015   0.001  -0.000   1.433  -0.000   0.011  -0.000  -0.000
  0.001   0.001  -0.000   0.013   0.012  -0.000   0.000  -2.300   0.010   0.001  -0.018  -0.000   1.436  -0.007  -0.000   0.013
  0.010  -0.018   0.006   0.054  -0.094   0.035  -0.015   0.010  -9.288   0.007  -0.013   0.011  -0.007   6.513  -0.005   0.009
 -0.000   0.000   0.001  -0.000   0.008   0.012   0.001   0.001   0.007  -2.292   0.012  -0.000  -0.000  -0.005   1.430  -0.008
  0.017   0.000  -0.011   0.094  -0.000  -0.061  -0.000  -0.018  -0.013   0.011  -9.285  -0.000   0.013   0.009  -0.008   6.510
 -0.001  -0.003  -0.000   0.030   0.026   0.020  -0.008  -0.012   0.002  -0.007  -0.007   0.006   0.008  -0.002   0.005   0.005
  0.001   0.001   0.000  -0.001  -0.001  -0.000   0.000   0.000  -0.001   0.000   0.000  -0.000  -0.000   0.000  -0.000  -0.000


------------------------ aborting loop because EDIFF is reached ----------------------------------------


    CHARGE:  cpu time    0.01: real time    0.01
    FORLOC:  cpu time    0.00: real time    0.00
    FORNL :  cpu time    0.06: real time    0.06
    STRESS:  cpu time    0.64: real time    0.64
    FORCOR:  cpu time    0.00: real time    0.00
    FORHAR:  cpu time    0.00: real time    0.00
    MIXING:  cpu time    0.00: real time    0.00
    OFIELD:  cpu time    0.00: real time    0.00

  FORCE on cell =-STRESS in cart. coord.  units (eV):
  Direction    XX          YY          ZZ          XY          YZ          ZX
  --------------------------------------------------------------------------------------
  Alpha Z   166.69950   166.69950   166.69950
  Ewald    -759.27364  -758.87849  -759.28456    -0.42833    -0.55345    -0.37564
  Hartree   227.90259   228.01532   227.73010    -0.19071    -0.25003    -0.16874
  E(xc)    -170.16046  -170.15998  -170.16071    -0.00070    -0.00101    -0.00064
  Local     -32.62535   -33.13607   -32.41963     0.62109     0.80406     0.54500
  n-local   -88.05974   -88.06111   -88.06214    -0.00562    -0.00708    -0.00478
  augment   133.02462   133.03172   133.03022    -0.00286    -0.00453    -0.00250
  Kinetic   520.99102   521.03084   521.01576     0.00978     0.01699     0.00974
  Fock        0.00000     0.00000     0.00000     0.00000     0.00000     0.00000
  -------------------------------------------------------------------------------------
  Total      -1.50147    -1.45826    -1.45145     0.00265     0.00497     0.00245
  in kB     -41.11428   -39.93126   -39.74467     0.07255     0.13596     0.06713
  external pressure =      -40.26 kB  Pullay stress =        0.00 kB


 VOLUME and BASIS-vectors are now :
 -----------------------------------------------------------------------------
  energy-cutoff  :      400.00
  volume of cell :       58.51
      direct lattice vectors                 reciprocal lattice vectors
     3.882200000  0.000000000  0.000000000     0.257585905  0.000000000  0.000000000
     0.000000000  3.882200000  0.000000000     0.000000000  0.257585905  0.000000000
     0.000000000  0.000000000  3.882200000     0.000000000  0.000000000  0.257585905

  length of vectors
     3.882200000  3.882200000  3.882200000     0.257585905  0.257585905  0.257585905


 FORCES acting on ions
    electron-ion (+dipol)            ewald-force                    non-local-force                 convergence-correction
 -----------------------------------------------------------------------------------------------
   0.398E+01 0.561E+01 0.368E+01   -.405E+01 -.571E+01 -.375E+01   0.561E-01 0.790E-01 0.539E-01   0.974E-02 0.239E-01 0.540E-01
   0.140E+01 0.353E+01 0.660E+01   -.132E+01 -.339E+01 -.644E+01   -.443E-01 -.861E-01 -.122E+00   0.114E-02 -.295E-03 0.142E-02
   -.798E+01 0.196E+01 0.339E+00   0.896E+01 -.213E+01 -.350E+00   -.936E+00 0.112E+00 -.592E-01   0.990E-04 0.603E-03 0.112E-02
   0.165E+01 -.119E+02 0.347E+00   -.179E+01 0.134E+02 -.359E+00   0.114E+00 -.141E+01 -.576E-01   -.663E-03 0.633E-03 -.466E-03
   0.165E+01 0.197E+01 -.966E+01   -.179E+01 -.214E+01 0.109E+02   0.114E+00 0.113E+00 -.117E+01   -.158E-02 -.198E-02 0.112E-02
 -----------------------------------------------------------------------------------------------
   0.690E+00 0.117E+01 0.130E+01   0.444E-15 0.444E-15 0.178E-14   -.695E+00 -.119E+01 -.136E+01   0.874E-02 0.229E-01 0.572E-01
 
 
 POSITION                                       TOTAL-FORCE (eV/Angst)
 -----------------------------------------------------------------------------------
      0.01902      0.02905      0.02543        -0.009435     -0.003538      0.037952
      1.95360      1.96616      1.97809         0.034470      0.048553      0.030783
      1.94110      0.00000      0.00000         0.040233     -0.057087     -0.070169
      0.00000      1.94110      0.00000        -0.032772      0.068573     -0.069970
      0.00000      0.00000      1.94110        -0.032496     -0.056501      0.071404
 -----------------------------------------------------------------------------------
    total drift:                                0.004099      0.003369      0.001990


--------------------------------------------------------------------------------------------------------



  FREE ENERGIE OF THE ION-ELECTRON SYSTEM (eV)
  ---------------------------------------------------
  free  energy   TOTEN  =       -40.06795757 eV

  energy  without entropy=      -40.07491865  energy(sigma->0) =      -40.07027793
 
 d Force = 0.1615975E-01[-0.195E-03, 0.325E-01]  d Energy = 0.1476068E-01 0.140E-02
 d Force = 0.1059933E+01[ 0.226E+00, 0.189E+01]  d Ewald  = 0.1060367E+01-0.433E-03


--------------------------------------------------------------------------------------------------------


    POTLOK:  cpu time    0.01: real time    0.01


--------------------------------------------------------------------------------------------------------


 stress matrix after NEB project (eV)
     -1.50147      0.00265      0.00245
      0.00265     -1.45826      0.00497
      0.00245      0.00497     -1.45145
  FORCES: max atom, RMS     0.067031    0.034742
  FORCE total and by dimension    0.077686    0.048553
  Stress total and by dimension    2.547100    1.501467


--------------------------------------------------------------------------------------------------------


  
 reached required accuracy - stopping structural energy minimisation
 writing wavefunctions
     LOOP+:  cpu time    4.90: real time    4.90
    4ORBIT:  cpu time    0.00: real time    0.00

 total amount of memory used by VASP on root node    61338. kBytes
========================================================================

   base      :      30000. kBytes
   nonl-proj :      29425. kBytes
   fftplans  :        145. kBytes
   grid      :        538. kBytes
   one-center:         77. kBytes
   wavefun   :       1153. kBytes
 
  
  
 General timing and accounting informations for this job:
 ========================================================
  
                  Total CPU time used (sec):       22.228
                            User time (sec):       22.016
                          System time (sec):        0.212
                         Elapsed time (sec):       22.496
  
                   Maximum memory used (kb):       88092.
                   Average memory used (kb):           0.
  
                          Minor page faults:        28063
                          Major page faults:            2
                 Voluntary context switches:          355
