 vasp.5.3.5 31Mar14 (build Dec 17 2015 22:09:37) complex                        
  
 executed on             LinuxIFC date 2017.03.19  16:31:18
 running on   22 total cores
 distrk:  each k-point on   22 cores,    1 groups
 distr:  one band on NCORES_PER_BAND=   1 cores,   22 groups


--------------------------------------------------------------------------------------------------------


 INCAR:
 POTCAR:    PAW_PBE Ti_pv 07Sep2000               
 POTCAR:    PAW_PBE Ca_pv 06Sep2000               
 POTCAR:    PAW_PBE O 08Apr2002                   

 ----------------------------------------------------------------------------- 
|                                                                             |
|           W    W    AA    RRRRR   N    N  II  N    N   GGGG   !!!           |
|           W    W   A  A   R    R  NN   N  II  NN   N  G    G  !!!           |
|           W    W  A    A  R    R  N N  N  II  N N  N  G       !!!           |
|           W WW W  AAAAAA  RRRRR   N  N N  II  N  N N  G  GGG   !            |
|           WW  WW  A    A  R   R   N   NN  II  N   NN  G    G                |
|           W    W  A    A  R    R  N    N  II  N    N   GGGG   !!!           |
|                                                                             |
|      For optimal performance we recommend to set                            |
|        NCORE= 4 - approx SQRT( number of cores)                             |
|      NCORE specifies how many cores store one orbital (NPAR=cpu/NCORE).     |
|      This setting can  greatly improve the performance of VASP for DFT.     |
|      The default, NPAR=number of cores might be grossly inefficient         |
|      on modern multi-core architectures or massively parallel machines.     |
|      Do your own testing !!!!                                               |
|      Unfortunately you need to use the default for GW and RPA calculations. |
|      (for HF NCORE is supported but not extensively tested yet)             |
|                                                                             |
 ----------------------------------------------------------------------------- 

 POTCAR:    PAW_PBE Ti_pv 07Sep2000               
   VRHFIN =Ti: d3 s1                                                            
   LEXCH  = PE                                                                  
   EATOM  =  1042.5995 eV,   76.6289 Ry                                         
                                                                                
   TITEL  = PAW_PBE Ti_pv 07Sep2000                                             
   LULTRA =        F    use ultrasoft PP ?                                      
   IUNSCR =        1    unscreen: 0-lin 1-nonlin 2-no                           
   RPACOR =    2.200    partial core radius                                     
   POMASS =   47.880; ZVAL   =   10.000    mass and valenz                      
   RCORE  =    2.500    outmost cutoff radius                                   
   RWIGS  =    2.500; RWIGS  =    1.323    wigner-seitz radius (au A)           
   ENMAX  =  222.335; ENMIN  =  166.751 eV                                      
   RCLOC  =    1.701    cutoff for local pot                                    
   LCOR   =        T    correct aug charges                                     
   LPAW   =        T    paw PP                                                  
   EAUG   =  482.848                                                            
   DEXC   =    0.000                                                            
   RMAX   =    2.564    core radius for proj-oper                               
   RAUG   =    1.300    factor for augmentation sphere                          
   RDEP   =    2.538    radius for radial grids                                 
   RDEPT  =    1.952    core radius for aug-charge                              
                                                                                
   Atomic configuration                                                         
    8 entries                                                                   
     n  l   j            E        occ.                                          
     1  0  0.50     -4865.3608   2.0000                                         
     2  0  0.50      -533.1368   2.0000                                         
     2  1  1.50      -440.5031   6.0000                                         
     3  0  0.50       -59.3186   2.0000                                         
     3  1  1.50       -35.7012   6.0000                                         
     3  2  2.50        -1.9157   3.0000                                         
     4  0  0.50        -3.7291   1.0000                                         
     4  3  2.50        -1.3606   0.0000                                         
   Description                                                                  
     l       E           TYP  RCUT    TYP  RCUT                                 
     1    -35.7012140     23  2.300                                             
     1     -1.3605826     23  2.300                                             
     2     -1.9156996     23  2.500                                             
     2     -0.4063033     23  2.500                                             
     0     -3.7290856     23  2.500                                             
     0     20.4087390     23  2.500                                             
  local pseudopotential read in
  partial core-charges read in
  partial kinetic energy density read in
  atomic valenz-charges read in
  non local Contribution for L=           1  read in
    real space projection operators read in
  non local Contribution for L=           1  read in
    real space projection operators read in
  non local Contribution for L=           2  read in
    real space projection operators read in
  non local Contribution for L=           2  read in
    real space projection operators read in
  non local Contribution for L=           0  read in
    real space projection operators read in
  non local Contribution for L=           0  read in
    real space projection operators read in
    PAW grid and wavefunctions read in
 
   number of l-projection  operators is LMAX  =           6
   number of lm-projection operators is LMMAX =          18
 
 POTCAR:    PAW_PBE Ca_pv 06Sep2000               
   VRHFIN =Ca: p6s2d0.01                                                        
   LEXCH  = PE                                                                  
   EATOM  =   612.6676 eV,   45.0298 Ry                                         
                                                                                
   TITEL  = PAW_PBE Ca_pv 06Sep2000                                             
   LULTRA =        F    use ultrasoft PP ?                                      
   IUNSCR =        1    unscreen: 0-lin 1-nonlin 2-no                           
   RPACOR =    2.300    partial core radius                                     
   POMASS =   40.078; ZVAL   =    8.000    mass and valenz                      
   RCORE  =    3.000    outmost cutoff radius                                   
   RWIGS  =    3.300; RWIGS  =    1.746    wigner-seitz radius (au A)           
   ENMAX  =  119.559; ENMIN  =   89.670 eV                                      
   RCLOC  =    1.709    cutoff for local pot                                    
   LCOR   =        T    correct aug charges                                     
   LPAW   =        T    paw PP                                                  
   EAUG   =  325.799                                                            
   DEXC   =    0.000                                                            
   RMAX   =    3.072    core radius for proj-oper                               
   RAUG   =    1.300    factor for augmentation sphere                          
   RDEP   =    3.090    radius for radial grids                                 
   RDEPT  =    2.377    core radius for aug-charge                              
                                                                                
   Atomic configuration                                                         
    7 entries                                                                   
     n  l   j            E        occ.                                          
     1  0  0.50     -3949.1705   2.0000                                         
     2  0  0.50      -414.3434   2.0000                                         
     2  1  1.50      -334.7047   6.0000                                         
     3  0  0.50       -47.0896   2.0000                                         
     3  1  1.50       -28.0061   6.0000                                         
     4  0  0.50        -3.7663   2.0000                                         
     3  2  1.50        -4.0817   0.0000                                         
   Description                                                                  
     l       E           TYP  RCUT    TYP  RCUT                                 
     1    -28.0060855     23  3.000                                             
     1      1.3605826     23  3.000                                             
     0     -3.7663320     23  3.000                                             
     0      4.1207953     23  3.000                                             
     2     -4.0817478     23  3.000                                             
     2     -0.8716232     23  3.000                                             
  local pseudopotential read in
  partial core-charges read in
  partial kinetic energy density read in
  atomic valenz-charges read in
  non local Contribution for L=           1  read in
    real space projection operators read in
  non local Contribution for L=           1  read in
    real space projection operators read in
  non local Contribution for L=           0  read in
    real space projection operators read in
  non local Contribution for L=           0  read in
    real space projection operators read in
  non local Contribution for L=           2  read in
    real space projection operators read in
  non local Contribution for L=           2  read in
    real space projection operators read in
    PAW grid and wavefunctions read in
 
   number of l-projection  operators is LMAX  =           6
   number of lm-projection operators is LMMAX =          18
 
 POTCAR:    PAW_PBE O 08Apr2002                   
   VRHFIN =O: s2p4                                                              
   LEXCH  = PE                                                                  
   EATOM  =   432.3788 eV,   31.7789 Ry                                         
                                                                                
   TITEL  = PAW_PBE O 08Apr2002                                                 
   LULTRA =        F    use ultrasoft PP ?                                      
   IUNSCR =        1    unscreen: 0-lin 1-nonlin 2-no                           
   RPACOR =    1.200    partial core radius                                     
   POMASS =   16.000; ZVAL   =    6.000    mass and valenz                      
   RCORE  =    1.520    outmost cutoff radius                                   
   RWIGS  =    1.550; RWIGS  =    0.820    wigner-seitz radius (au A)           
   ENMAX  =  400.000; ENMIN  =  300.000 eV                                      
   ICORE  =        2    local potential                                         
   LCOR   =        T    correct aug charges                                     
   LPAW   =        T    paw PP                                                  
   EAUG   =  605.392                                                            
   DEXC   =    0.000                                                            
   RMAX   =    1.553    core radius for proj-oper                               
   RAUG   =    1.300    factor for augmentation sphere                          
   RDEP   =    1.550    radius for radial grids                                 
   RDEPT  =    1.329    core radius for aug-charge                              
                                                                                
   Atomic configuration                                                         
    4 entries                                                                   
     n  l   j            E        occ.                                          
     1  0  0.50      -514.6923   2.0000                                         
     2  0  0.50       -23.9615   2.0000                                         
     2  1  0.50        -9.0305   4.0000                                         
     3  2  1.50        -9.5241   0.0000                                         
   Description                                                                  
     l       E           TYP  RCUT    TYP  RCUT                                 
     0    -23.9615318     23  1.200                                             
     0     -9.5240782     23  1.200                                             
     1     -9.0304911     23  1.520                                             
     1      8.1634956     23  1.520                                             
     2     -9.5240782      7  1.500                                             
  local pseudopotential read in
  partial core-charges read in
  partial kinetic energy density read in
  kinetic energy density of atom read in
  atomic valenz-charges read in
  non local Contribution for L=           0  read in
    real space projection operators read in
  non local Contribution for L=           0  read in
    real space projection operators read in
  non local Contribution for L=           1  read in
    real space projection operators read in
  non local Contribution for L=           1  read in
    real space projection operators read in
    PAW grid and wavefunctions read in
 
   number of l-projection  operators is LMAX  =           4
   number of lm-projection operators is LMMAX =           8
 
  PAW_PBE Ti_pv 07Sep2000               :
 energy of atom  1       EATOM=-1042.5995
 kinetic energy error for atom=    0.0037 (will be added to EATOM!!)
  PAW_PBE Ca_pv 06Sep2000               :
 energy of atom  2       EATOM= -612.6676
 kinetic energy error for atom=    0.0002 (will be added to EATOM!!)
  PAW_PBE O 08Apr2002                   :
 energy of atom  3       EATOM= -432.3788
 kinetic energy error for atom=    0.1156 (will be added to EATOM!!)
 
 
 POSCAR: CaTiO3                                  
  positions in direct lattice
  velocities in cartesian coordinates
  No initial velocities read in
 exchange correlation table for  LEXCH =        8
   RHO(1)=    0.500       N(1)  =     2000
   RHO(2)=  100.500       N(2)  =     4000

 VTST: version 3.1, (03/28/14)

 CHAIN: initializing optimizer
 
 OPT: Using VASP Conjugate-Gradient optimizer
 CHAIN: Read ICHAIN            0
 
 POSCAR: CaTiO3                                  
  positions in direct lattice
  velocities in cartesian coordinates
  No initial velocities read in
 


--------------------------------------------------------------------------------------------------------


 ion  position               nearest neighbor table
   1  0.010  0.020  0.030-   5 1.83   4 1.87   3 1.91   3 1.98   4 2.02   5 2.06   2 3.23   2 3.27
                             2 3.32   2 3.37   2 3.37   2 3.41   2 3.45   2 3.50
   2  0.500  0.500  0.500-   3 2.75   4 2.75   5 2.75   3 2.75   4 2.75   3 2.75   5 2.75   3 2.75
                             4 2.75   5 2.75   4 2.75   5 2.75   1 3.23   1 3.27   1 3.32   1 3.37
   3  0.500  0.000  0.000-   1 1.91   1 1.98   2 2.75   2 2.75   2 2.75   2 2.75
   4  0.000  0.500  0.000-   1 1.87   1 2.02   2 2.75   2 2.75   2 2.75   2 2.75
   5  0.000  0.000  0.500-   1 1.83   1 2.06   2 2.75   2 2.75   2 2.75   2 2.75
 
  LATTYP: Found a simple cubic cell.
 ALAT       =     3.8822000000
  
  Lattice vectors:
  
 A1 = (   3.8822000000,   0.0000000000,   0.0000000000)
 A2 = (   0.0000000000,   3.8822000000,   0.0000000000)
 A3 = (   0.0000000000,   0.0000000000,   3.8822000000)


Analysis of symmetry for initial positions (statically):
=====================================================================
 Subroutine PRICEL returns:
 Original cell was already a primitive cell.
 

 Routine SETGRP: Setting up the symmetry group for a 
 simple cubic supercell.


 Subroutine GETGRP returns: Found  1 space group operations
 (whereof  1 operations were pure point group operations)
 out of a pool of 48 trial point group operations.


The static configuration has the point symmetry C_1 .


Analysis of symmetry for dynamics (positions and initial velocities):
=====================================================================
 Subroutine PRICEL returns:
 Original cell was already a primitive cell.
 

 Routine SETGRP: Setting up the symmetry group for a 
 simple cubic supercell.


 Subroutine GETGRP returns: Found  1 space group operations
 (whereof  1 operations were pure point group operations)
 out of a pool of 48 trial point group operations.


The dynamic configuration has the point symmetry C_1 .


Analysis of constrained symmetry for selective dynamics:
=====================================================================
 Subroutine PRICEL returns:
 Original cell was already a primitive cell.
 

 Routine SETGRP: Setting up the symmetry group for a 
 simple cubic supercell.


 Subroutine GETGRP returns: Found  1 space group operations
 (whereof  1 operations were pure point group operations)
 out of a pool of 48 trial point group operations.


The constrained configuration has the point symmetry C_1 .
 
 
 KPOINTS: k-points                                

Automatic generation of k-mesh.
Space group operators:
 irot       det(A)        alpha          n_x          n_y          n_z        tau_x        tau_y        tau_z
    1     1.000000     0.000000     1.000000     0.000000     0.000000     0.000000     0.000000     0.000000
 
 Subroutine IBZKPT returns following result:
 ===========================================
 
 Found     63 irreducible k-points:
 
 Following reciprocal coordinates:
            Coordinates               Weight
  0.000000  0.000000  0.000000      1.000000
  0.200000  0.000000  0.000000      2.000000
  0.400000  0.000000  0.000000      2.000000
  0.000000  0.200000  0.000000      2.000000
  0.200000  0.200000  0.000000      2.000000
  0.400000  0.200000  0.000000      2.000000
 -0.400000  0.200000  0.000000      2.000000
 -0.200000  0.200000  0.000000      2.000000
  0.000000  0.400000  0.000000      2.000000
  0.200000  0.400000  0.000000      2.000000
  0.400000  0.400000  0.000000      2.000000
 -0.400000  0.400000  0.000000      2.000000
 -0.200000  0.400000  0.000000      2.000000
  0.000000  0.000000  0.200000      2.000000
  0.200000  0.000000  0.200000      2.000000
  0.400000  0.000000  0.200000      2.000000
 -0.400000  0.000000  0.200000      2.000000
 -0.200000  0.000000  0.200000      2.000000
  0.000000  0.200000  0.200000      2.000000
  0.200000  0.200000  0.200000      2.000000
  0.400000  0.200000  0.200000      2.000000
 -0.400000  0.200000  0.200000      2.000000
 -0.200000  0.200000  0.200000      2.000000
  0.000000  0.400000  0.200000      2.000000
  0.200000  0.400000  0.200000      2.000000
  0.400000  0.400000  0.200000      2.000000
 -0.400000  0.400000  0.200000      2.000000
 -0.200000  0.400000  0.200000      2.000000
  0.000000 -0.400000  0.200000      2.000000
  0.200000 -0.400000  0.200000      2.000000
  0.400000 -0.400000  0.200000      2.000000
 -0.400000 -0.400000  0.200000      2.000000
 -0.200000 -0.400000  0.200000      2.000000
  0.000000 -0.200000  0.200000      2.000000
  0.200000 -0.200000  0.200000      2.000000
  0.400000 -0.200000  0.200000      2.000000
 -0.400000 -0.200000  0.200000      2.000000
 -0.200000 -0.200000  0.200000      2.000000
  0.000000  0.000000  0.400000      2.000000
  0.200000  0.000000  0.400000      2.000000
  0.400000  0.000000  0.400000      2.000000
 -0.400000  0.000000  0.400000      2.000000
 -0.200000  0.000000  0.400000      2.000000
  0.000000  0.200000  0.400000      2.000000
  0.200000  0.200000  0.400000      2.000000
  0.400000  0.200000  0.400000      2.000000
 -0.400000  0.200000  0.400000      2.000000
 -0.200000  0.200000  0.400000      2.000000
  0.000000  0.400000  0.400000      2.000000
  0.200000  0.400000  0.400000      2.000000
  0.400000  0.400000  0.400000      2.000000
 -0.400000  0.400000  0.400000      2.000000
 -0.200000  0.400000  0.400000      2.000000
  0.000000 -0.400000  0.400000      2.000000
  0.200000 -0.400000  0.400000      2.000000
  0.400000 -0.400000  0.400000      2.000000
 -0.400000 -0.400000  0.400000      2.000000
 -0.200000 -0.400000  0.400000      2.000000
  0.000000 -0.200000  0.400000      2.000000
  0.200000 -0.200000  0.400000      2.000000
  0.400000 -0.200000  0.400000      2.000000
 -0.400000 -0.200000  0.400000      2.000000
 -0.200000 -0.200000  0.400000      2.000000
 
 Following cartesian coordinates:
            Coordinates               Weight
  0.000000  0.000000  0.000000      1.000000
  0.200000  0.000000  0.000000      2.000000
  0.400000  0.000000  0.000000      2.000000
  0.000000  0.200000  0.000000      2.000000
  0.200000  0.200000  0.000000      2.000000
  0.400000  0.200000  0.000000      2.000000
 -0.400000  0.200000  0.000000      2.000000
 -0.200000  0.200000  0.000000      2.000000
  0.000000  0.400000  0.000000      2.000000
  0.200000  0.400000  0.000000      2.000000
  0.400000  0.400000  0.000000      2.000000
 -0.400000  0.400000  0.000000      2.000000
 -0.200000  0.400000  0.000000      2.000000
  0.000000  0.000000  0.200000      2.000000
  0.200000  0.000000  0.200000      2.000000
  0.400000  0.000000  0.200000      2.000000
 -0.400000  0.000000  0.200000      2.000000
 -0.200000  0.000000  0.200000      2.000000
  0.000000  0.200000  0.200000      2.000000
  0.200000  0.200000  0.200000      2.000000
  0.400000  0.200000  0.200000      2.000000
 -0.400000  0.200000  0.200000      2.000000
 -0.200000  0.200000  0.200000      2.000000
  0.000000  0.400000  0.200000      2.000000
  0.200000  0.400000  0.200000      2.000000
  0.400000  0.400000  0.200000      2.000000
 -0.400000  0.400000  0.200000      2.000000
 -0.200000  0.400000  0.200000      2.000000
  0.000000 -0.400000  0.200000      2.000000
  0.200000 -0.400000  0.200000      2.000000
  0.400000 -0.400000  0.200000      2.000000
 -0.400000 -0.400000  0.200000      2.000000
 -0.200000 -0.400000  0.200000      2.000000
  0.000000 -0.200000  0.200000      2.000000
  0.200000 -0.200000  0.200000      2.000000
  0.400000 -0.200000  0.200000      2.000000
 -0.400000 -0.200000  0.200000      2.000000
 -0.200000 -0.200000  0.200000      2.000000
  0.000000  0.000000  0.400000      2.000000
  0.200000  0.000000  0.400000      2.000000
  0.400000  0.000000  0.400000      2.000000
 -0.400000  0.000000  0.400000      2.000000
 -0.200000  0.000000  0.400000      2.000000
  0.000000  0.200000  0.400000      2.000000
  0.200000  0.200000  0.400000      2.000000
  0.400000  0.200000  0.400000      2.000000
 -0.400000  0.200000  0.400000      2.000000
 -0.200000  0.200000  0.400000      2.000000
  0.000000  0.400000  0.400000      2.000000
  0.200000  0.400000  0.400000      2.000000
  0.400000  0.400000  0.400000      2.000000
 -0.400000  0.400000  0.400000      2.000000
 -0.200000  0.400000  0.400000      2.000000
  0.000000 -0.400000  0.400000      2.000000
  0.200000 -0.400000  0.400000      2.000000
  0.400000 -0.400000  0.400000      2.000000
 -0.400000 -0.400000  0.400000      2.000000
 -0.200000 -0.400000  0.400000      2.000000
  0.000000 -0.200000  0.400000      2.000000
  0.200000 -0.200000  0.400000      2.000000
  0.400000 -0.200000  0.400000      2.000000
 -0.400000 -0.200000  0.400000      2.000000
 -0.200000 -0.200000  0.400000      2.000000
 


--------------------------------------------------------------------------------------------------------




 Dimension of arrays:
   k-points           NKPTS =     63   k-points in BZ     NKDIM =     63   number of bands    NBANDS=     22
   number of dos      NEDOS =    301   number of ions     NIONS =      5
   non local maximal  LDIM  =      6   non local SUM 2l+1 LMDIM =     18
   total plane-waves  NPLWV =   8000
   max r-space proj   IRMAX =      1   max aug-charges    IRDMAX=   9776
   dimension x,y,z NGX =    20 NGY =   20 NGZ =   20
   dimension x,y,z NGXF=    40 NGYF=   40 NGZF=   40
   support grid    NGXF=    40 NGYF=   40 NGZF=   40
   ions per type =               1   1   3
 NGX,Y,Z   is equivalent  to a cutoff of   8.56,  8.56,  8.56 a.u.
 NGXF,Y,Z  is equivalent  to a cutoff of  17.13, 17.13, 17.13 a.u.


 I would recommend the setting:
   dimension x,y,z NGX =    19 NGY =   19 NGZ =   19
 SYSTEM =  unknown system                          
 POSCAR =  CaTiO3                                  

 Startparameter for this run:
   NWRITE =      2    write-flag & timer
   PREC   = normal    normal or accurate (medium, high low for compatibility)
   ISTART =      1    job   : 0-new  1-cont  2-samecut
   ICHARG =      0    charge: 1-file 2-atom 10-const
   ISPIN  =      1    spin polarized calculation?
   LNONCOLLINEAR =      F non collinear calculations
   LSORBIT =      F    spin-orbit coupling
   INIWAV =      1    electr: 0-lowe 1-rand  2-diag
   LASPH  =      F    aspherical Exc in radial PAW
   METAGGA=      F    non-selfconsistent MetaGGA calc.

 Electronic Relaxation 1
   ENCUT  =  400.0 eV  29.40 Ry    5.42 a.u.   6.33  6.33  6.33*2*pi/ulx,y,z
   ENINI  =  400.0     initial cutoff
   ENAUG  =  605.4 eV  augmentation charge cutoff
   NELM   =     60;   NELMIN=  2; NELMDL=  0     # of ELM steps 
   EDIFF  = 0.1E-03   stopping-criterion for ELM
   LREAL  =      F    real-space projection
   NLSPLINE    = F    spline interpolate recip. space projectors
   LCOMPAT=      F    compatible to vasp.4.4
   GGA_COMPAT  = T    GGA compatible to vasp.4.4-vasp.4.6
   LMAXPAW     = -100 max onsite density
   LMAXMIX     =    2 max onsite mixed and CHGCAR
   VOSKOWN=      0    Vosko Wilk Nusair interpolation
   ROPT   =    0.00000   0.00000   0.00000
 Ionic relaxation
   EDIFFG = 0.1E-02   stopping-criterion for IOM
   NSW    =   1024    number of steps for IOM
   NBLOCK =      1;   KBLOCK =   1024    inner block; outer block 
   IBRION =      2    ionic relax: 0-MD 1-quasi-New 2-CG
   NFREE  =      1    steps in history (QN), initial steepest desc. (CG)
   ISIF   =      2    stress and relaxation
   IWAVPR =     11    prediction:  0-non 1-charg 2-wave 3-comb
   ISYM   =      2    0-nonsym 1-usesym 2-fastsym
   LCORR  =      T    Harris-Foulkes like correction to forces

   POTIM  = 0.5000    time-step for ionic-motion
   TEIN   =    0.0    initial temperature
   TEBEG  =    0.0;   TEEND  =   0.0 temperature during run
   SMASS  =  -3.00    Nose mass-parameter (am)
   estimated Nose-frequenzy (Omega)   =  0.10E-29 period in steps =****** mass=  -0.344E-27a.u.
   SCALEE = 1.0000    scale energy and forces
   NPACO  =    256;   APACO  = 16.0  distance and # of slots for P.C.
   PSTRESS=    0.0 pullay stress

  Mass of Ions in am
   POMASS =  47.88 40.08 16.00
  Ionic Valenz
   ZVAL   =  10.00  8.00  6.00
  Atomic Wigner-Seitz radii
   RWIGS  =  -1.00 -1.00 -1.00
  virtual crystal weights 
   VCA    =   1.00  1.00  1.00
   NELECT =      36.0000    total number of electrons
   NUPDOWN=      -1.0000    fix difference up-down

 DOS related values:
   EMIN   =  10.00;   EMAX   =-10.00  energy-range for DOS
   EFERMI =   0.00
   ISMEAR =     1;   SIGMA  =   0.20  broadening in eV -4-tet -1-fermi 0-gaus

 Electronic relaxation 2 (details)
   IALGO  =     38    algorithm
   LDIAG  =      T    sub-space diagonalisation (order eigenvalues)
   LSUBROT=      F    optimize rotation matrix (better conditioning)
   TURBO    =      0    0=normal 1=particle mesh
   IRESTART =      0    0=no restart 2=restart with 2 vectors
   NREBOOT  =      0    no. of reboots
   NMIN     =      0    reboot dimension
   EREF     =   0.00    reference energy to select bands
   IMIX   =      4    mixing-type and parameters
     AMIX     =   0.40;   BMIX     =  1.00
     AMIX_MAG =   1.60;   BMIX_MAG =  1.00
     AMIN     =   0.10
     WC   =   100.;   INIMIX=   1;  MIXPRE=   1;  MAXMIX= -45

 Intra band minimization:
   WEIMIN = 0.0010     energy-eigenvalue tresh-hold
   EBREAK =  0.11E-05  absolut break condition
   DEPER  =   0.30     relativ break condition  

   TIME   =   0.40     timestep for ELM

  volume/ion in A,a.u.               =      11.70        78.97
  Fermi-wavevector in a.u.,A,eV,Ry     =   1.392401  2.631257 26.378723  1.938781
  Thomas-Fermi vector in A             =   2.516148
 
 Write flags
   LWAVE  =      T    write WAVECAR
   LCHARG =      T    write CHGCAR
   LVTOT  =      F    write LOCPOT, total local potential
   LVHAR  =      F    write LOCPOT, Hartree potential only
   LELF   =      F    write electronic localiz. function (ELF)
   LORBIT =      0    0 simple, 1 ext, 2 COOP (PROOUT)


 Dipole corrections
   LMONO  =      F    monopole corrections only (constant potential shift)
   LDIPOL =      F    correct potential (dipole corrections)
   IDIPOL =      0    1-x, 2-y, 3-z, 4-all directions 
   EPSILON=  1.0000000 bulk dielectric constant

 Exchange correlation treatment:
   GGA     =    --    GGA type
   LEXCH   =     8    internal setting for exchange type
   VOSKOWN=      0    Vosko Wilk Nusair interpolation
   LHFCALC =     F    Hartree Fock is set to
   LHFONE  =     F    Hartree Fock one center treatment
   AEXX    =    0.0000 exact exchange contribution

 Linear response parameters
   LEPSILON=     F    determine dielectric tensor
   LRPA    =     F    only Hartree local field effects (RPA)
   LNABLA  =     F    use nabla operator in PAW spheres
   LVEL    =     F    velocity operator in full k-point grid
   LINTERFAST=   F  fast interpolation
   KINTER  =     0    interpolate to denser k-point grid
   CSHIFT  =0.1000    complex shift for real part using Kramers Kronig
   OMEGAMAX=  -1.0    maximum frequency
   DEG_THRESHOLD= 0.2000000E-02 threshold for treating states as degnerate
   RTIME   =    0.100 relaxation time in fs

 Orbital magnetization related:
   ORBITALMAG=     F  switch on orbital magnetization
   LCHIMAG   =     F  perturbation theory with respect to B field
   DQ        =  0.001000  dq finite difference perturbation B field



--------------------------------------------------------------------------------------------------------


 conjugate gradient relaxation of ions
   using selective dynamics as specified on POSCAR
 charge density and potential will be updated during run
 non-spin polarized calculation
 Variant of blocked Davidson
 Davidson routine will perform the subspace rotation
 perform sub-space diagonalisation
    after iterative eigenvector-optimisation
 modified Broyden-mixing scheme, WC =      100.0
 initial mixing is a Kerker type mixing with AMIX =  0.4000 and BMIX =      1.0000
 Hartree-type preconditioning will be used
 using additional bands            4
 reciprocal scheme for non local part
 use partial core corrections
 calculate Harris-corrections to forces 
   (improved forces if not selfconsistent)
 use gradient corrections 
 use of overlap-Matrix (Vanderbilt PP)
 Methfessel and Paxton  Order N= 1 SIGMA  =   0.20


--------------------------------------------------------------------------------------------------------


  energy-cutoff  :      400.00
  volume of cell :       58.51
      direct lattice vectors                 reciprocal lattice vectors
     3.882200000  0.000000000  0.000000000     0.257585905  0.000000000  0.000000000
     0.000000000  3.882200000  0.000000000     0.000000000  0.257585905  0.000000000
     0.000000000  0.000000000  3.882200000     0.000000000  0.000000000  0.257585905

  length of vectors
     3.882200000  3.882200000  3.882200000     0.257585905  0.257585905  0.257585905


 
 old parameters found on file WAVECAR:
  energy-cutoff  :      400.00
  volume of cell :       58.51
      direct lattice vectors                 reciprocal lattice vectors
     3.882200000  0.000000000  0.000000000     0.257585905  0.000000000  0.000000000
     0.000000000  3.882200000  0.000000000     0.000000000  0.257585905  0.000000000
     0.000000000  0.000000000  3.882200000     0.000000000  0.000000000  0.257585905

  length of vectors

 
 k-points in units of 2pi/SCALE and weight: k-points                                
   0.00000000  0.00000000  0.00000000       0.008
   0.20000000  0.00000000  0.00000000       0.016
   0.40000000  0.00000000  0.00000000       0.016
   0.00000000  0.20000000  0.00000000       0.016
   0.20000000  0.20000000  0.00000000       0.016
   0.40000000  0.20000000  0.00000000       0.016
  -0.40000000  0.20000000  0.00000000       0.016
  -0.20000000  0.20000000  0.00000000       0.016
   0.00000000  0.40000000  0.00000000       0.016
   0.20000000  0.40000000  0.00000000       0.016
   0.40000000  0.40000000  0.00000000       0.016
  -0.40000000  0.40000000  0.00000000       0.016
  -0.20000000  0.40000000  0.00000000       0.016
   0.00000000  0.00000000  0.20000000       0.016
   0.20000000  0.00000000  0.20000000       0.016
   0.40000000  0.00000000  0.20000000       0.016
  -0.40000000  0.00000000  0.20000000       0.016
  -0.20000000  0.00000000  0.20000000       0.016
   0.00000000  0.20000000  0.20000000       0.016
   0.20000000  0.20000000  0.20000000       0.016
   0.40000000  0.20000000  0.20000000       0.016
  -0.40000000  0.20000000  0.20000000       0.016
  -0.20000000  0.20000000  0.20000000       0.016
   0.00000000  0.40000000  0.20000000       0.016
   0.20000000  0.40000000  0.20000000       0.016
   0.40000000  0.40000000  0.20000000       0.016
  -0.40000000  0.40000000  0.20000000       0.016
  -0.20000000  0.40000000  0.20000000       0.016
   0.00000000 -0.40000000  0.20000000       0.016
   0.20000000 -0.40000000  0.20000000       0.016
   0.40000000 -0.40000000  0.20000000       0.016
  -0.40000000 -0.40000000  0.20000000       0.016
  -0.20000000 -0.40000000  0.20000000       0.016
   0.00000000 -0.20000000  0.20000000       0.016
   0.20000000 -0.20000000  0.20000000       0.016
   0.40000000 -0.20000000  0.20000000       0.016
  -0.40000000 -0.20000000  0.20000000       0.016
  -0.20000000 -0.20000000  0.20000000       0.016
   0.00000000  0.00000000  0.40000000       0.016
   0.20000000  0.00000000  0.40000000       0.016
   0.40000000  0.00000000  0.40000000       0.016
  -0.40000000  0.00000000  0.40000000       0.016
  -0.20000000  0.00000000  0.40000000       0.016
   0.00000000  0.20000000  0.40000000       0.016
   0.20000000  0.20000000  0.40000000       0.016
   0.40000000  0.20000000  0.40000000       0.016
  -0.40000000  0.20000000  0.40000000       0.016
  -0.20000000  0.20000000  0.40000000       0.016
   0.00000000  0.40000000  0.40000000       0.016
   0.20000000  0.40000000  0.40000000       0.016
   0.40000000  0.40000000  0.40000000       0.016
  -0.40000000  0.40000000  0.40000000       0.016
  -0.20000000  0.40000000  0.40000000       0.016
   0.00000000 -0.40000000  0.40000000       0.016
   0.20000000 -0.40000000  0.40000000       0.016
   0.40000000 -0.40000000  0.40000000       0.016
  -0.40000000 -0.40000000  0.40000000       0.016
  -0.20000000 -0.40000000  0.40000000       0.016
   0.00000000 -0.20000000  0.40000000       0.016
   0.20000000 -0.20000000  0.40000000       0.016
   0.40000000 -0.20000000  0.40000000       0.016
  -0.40000000 -0.20000000  0.40000000       0.016
  -0.20000000 -0.20000000  0.40000000       0.016
 
 k-points in reciprocal lattice and weights: k-points                                
   0.00000000  0.00000000  0.00000000       0.008
   0.20000000  0.00000000  0.00000000       0.016
   0.40000000  0.00000000  0.00000000       0.016
   0.00000000  0.20000000  0.00000000       0.016
   0.20000000  0.20000000  0.00000000       0.016
   0.40000000  0.20000000  0.00000000       0.016
  -0.40000000  0.20000000  0.00000000       0.016
  -0.20000000  0.20000000  0.00000000       0.016
   0.00000000  0.40000000  0.00000000       0.016
   0.20000000  0.40000000  0.00000000       0.016
   0.40000000  0.40000000  0.00000000       0.016
  -0.40000000  0.40000000  0.00000000       0.016
  -0.20000000  0.40000000  0.00000000       0.016
   0.00000000  0.00000000  0.20000000       0.016
   0.20000000  0.00000000  0.20000000       0.016
   0.40000000  0.00000000  0.20000000       0.016
  -0.40000000  0.00000000  0.20000000       0.016
  -0.20000000  0.00000000  0.20000000       0.016
   0.00000000  0.20000000  0.20000000       0.016
   0.20000000  0.20000000  0.20000000       0.016
   0.40000000  0.20000000  0.20000000       0.016
  -0.40000000  0.20000000  0.20000000       0.016
  -0.20000000  0.20000000  0.20000000       0.016
   0.00000000  0.40000000  0.20000000       0.016
   0.20000000  0.40000000  0.20000000       0.016
   0.40000000  0.40000000  0.20000000       0.016
  -0.40000000  0.40000000  0.20000000       0.016
  -0.20000000  0.40000000  0.20000000       0.016
   0.00000000 -0.40000000  0.20000000       0.016
   0.20000000 -0.40000000  0.20000000       0.016
   0.40000000 -0.40000000  0.20000000       0.016
  -0.40000000 -0.40000000  0.20000000       0.016
  -0.20000000 -0.40000000  0.20000000       0.016
   0.00000000 -0.20000000  0.20000000       0.016
   0.20000000 -0.20000000  0.20000000       0.016
   0.40000000 -0.20000000  0.20000000       0.016
  -0.40000000 -0.20000000  0.20000000       0.016
  -0.20000000 -0.20000000  0.20000000       0.016
   0.00000000  0.00000000  0.40000000       0.016
   0.20000000  0.00000000  0.40000000       0.016
   0.40000000  0.00000000  0.40000000       0.016
  -0.40000000  0.00000000  0.40000000       0.016
  -0.20000000  0.00000000  0.40000000       0.016
   0.00000000  0.20000000  0.40000000       0.016
   0.20000000  0.20000000  0.40000000       0.016
   0.40000000  0.20000000  0.40000000       0.016
  -0.40000000  0.20000000  0.40000000       0.016
  -0.20000000  0.20000000  0.40000000       0.016
   0.00000000  0.40000000  0.40000000       0.016
   0.20000000  0.40000000  0.40000000       0.016
   0.40000000  0.40000000  0.40000000       0.016
  -0.40000000  0.40000000  0.40000000       0.016
  -0.20000000  0.40000000  0.40000000       0.016
   0.00000000 -0.40000000  0.40000000       0.016
   0.20000000 -0.40000000  0.40000000       0.016
   0.40000000 -0.40000000  0.40000000       0.016
  -0.40000000 -0.40000000  0.40000000       0.016
  -0.20000000 -0.40000000  0.40000000       0.016
   0.00000000 -0.20000000  0.40000000       0.016
   0.20000000 -0.20000000  0.40000000       0.016
   0.40000000 -0.20000000  0.40000000       0.016
  -0.40000000 -0.20000000  0.40000000       0.016
  -0.20000000 -0.20000000  0.40000000       0.016
 
 position of ions in fractional coordinates (direct lattice) 
   0.01000000  0.02000000  0.03000000
   0.50000000  0.50000000  0.50000000
   0.50000000  0.00000000  0.00000000
   0.00000000  0.50000000  0.00000000
   0.00000000  0.00000000  0.50000000
 
 position of ions in cartesian coordinates  (Angst):
   0.03882200  0.07764400  0.11646600
   1.94110000  1.94110000  1.94110000
   1.94110000  0.00000000  0.00000000
   0.00000000  1.94110000  0.00000000
   0.00000000  0.00000000  1.94110000
 


--------------------------------------------------------------------------------------------------------


 k-point  1 :   0.0000 0.0000 0.0000  plane waves:    1045
 k-point  2 :   0.2000 0.0000 0.0000  plane waves:    1069
 k-point  3 :   0.4000 0.0000 0.0000  plane waves:    1064
 k-point  4 :   0.0000 0.2000 0.0000  plane waves:    1069
 k-point  5 :   0.2000 0.2000 0.0000  plane waves:    1073
 k-point  6 :   0.4000 0.2000 0.0000  plane waves:    1072
 k-point  7 :  -0.4000 0.2000 0.0000  plane waves:    1072
 k-point  8 :  -0.2000 0.2000 0.0000  plane waves:    1073
 k-point  9 :   0.0000 0.4000 0.0000  plane waves:    1064
 k-point 10 :   0.2000 0.4000 0.0000  plane waves:    1072
 k-point 11 :   0.4000 0.4000 0.0000  plane waves:    1063
 k-point 12 :  -0.4000 0.4000 0.0000  plane waves:    1063
 k-point 13 :  -0.2000 0.4000 0.0000  plane waves:    1072
 k-point 14 :   0.0000 0.0000 0.2000  plane waves:    1069
 k-point 15 :   0.2000 0.0000 0.2000  plane waves:    1073
 k-point 16 :   0.4000 0.0000 0.2000  plane waves:    1072
 k-point 17 :  -0.4000 0.0000 0.2000  plane waves:    1072
 k-point 18 :  -0.2000 0.0000 0.2000  plane waves:    1073
 k-point 19 :   0.0000 0.2000 0.2000  plane waves:    1073
 k-point 20 :   0.2000 0.2000 0.2000  plane waves:    1066
 k-point 21 :   0.4000 0.2000 0.2000  plane waves:    1068
 k-point 22 :  -0.4000 0.2000 0.2000  plane waves:    1068
 k-point 23 :  -0.2000 0.2000 0.2000  plane waves:    1066
 k-point 24 :   0.0000 0.4000 0.2000  plane waves:    1072
 k-point 25 :   0.2000 0.4000 0.2000  plane waves:    1068
 k-point 26 :   0.4000 0.4000 0.2000  plane waves:    1054
 k-point 27 :  -0.4000 0.4000 0.2000  plane waves:    1054
 k-point 28 :  -0.2000 0.4000 0.2000  plane waves:    1068
 k-point 29 :   0.0000-0.4000 0.2000  plane waves:    1072
 k-point 30 :   0.2000-0.4000 0.2000  plane waves:    1068
 k-point 31 :   0.4000-0.4000 0.2000  plane waves:    1054
 k-point 32 :  -0.4000-0.4000 0.2000  plane waves:    1054
 k-point 33 :  -0.2000-0.4000 0.2000  plane waves:    1068
 k-point 34 :   0.0000-0.2000 0.2000  plane waves:    1073
 k-point 35 :   0.2000-0.2000 0.2000  plane waves:    1066
 k-point 36 :   0.4000-0.2000 0.2000  plane waves:    1068
 k-point 37 :  -0.4000-0.2000 0.2000  plane waves:    1068
 k-point 38 :  -0.2000-0.2000 0.2000  plane waves:    1066
 k-point 39 :   0.0000 0.0000 0.4000  plane waves:    1064
 k-point 40 :   0.2000 0.0000 0.4000  plane waves:    1072
 k-point 41 :   0.4000 0.0000 0.4000  plane waves:    1063
 k-point 42 :  -0.4000 0.0000 0.4000  plane waves:    1063
 k-point 43 :  -0.2000 0.0000 0.4000  plane waves:    1072
 k-point 44 :   0.0000 0.2000 0.4000  plane waves:    1072
 k-point 45 :   0.2000 0.2000 0.4000  plane waves:    1068
 k-point 46 :   0.4000 0.2000 0.4000  plane waves:    1054
 k-point 47 :  -0.4000 0.2000 0.4000  plane waves:    1054
 k-point 48 :  -0.2000 0.2000 0.4000  plane waves:    1068
 k-point 49 :   0.0000 0.4000 0.4000  plane waves:    1063
 k-point 50 :   0.2000 0.4000 0.4000  plane waves:    1054
 k-point 51 :   0.4000 0.4000 0.4000  plane waves:    1058
 k-point 52 :  -0.4000 0.4000 0.4000  plane waves:    1058
 k-point 53 :  -0.2000 0.4000 0.4000  plane waves:    1054
 k-point 54 :   0.0000-0.4000 0.4000  plane waves:    1063
 k-point 55 :   0.2000-0.4000 0.4000  plane waves:    1054
 k-point 56 :   0.4000-0.4000 0.4000  plane waves:    1058
 k-point 57 :  -0.4000-0.4000 0.4000  plane waves:    1058
 k-point 58 :  -0.2000-0.4000 0.4000  plane waves:    1054
 k-point 59 :   0.0000-0.2000 0.4000  plane waves:    1072
 k-point 60 :   0.2000-0.2000 0.4000  plane waves:    1068
 k-point 61 :   0.4000-0.2000 0.4000  plane waves:    1054
 k-point 62 :  -0.4000-0.2000 0.4000  plane waves:    1054
 k-point 63 :  -0.2000-0.2000 0.4000  plane waves:    1068

 maximum and minimum number of plane-waves per node :      1073     1045

 maximum number of plane-waves:      1073
 maximum index in each direction: 
   IXMAX=    6   IYMAX=    6   IZMAX=    6
   IXMIN=   -6   IYMIN=   -6   IZMIN=   -6

 WARNING: aliasing errors must be expected set NGX to  26 to avoid them
 WARNING: aliasing errors must be expected set NGY to  26 to avoid them
 WARNING: aliasing errors must be expected set NGZ to  26 to avoid them
 aliasing errors are usually negligible using standard VASP settings
 and one can safely disregard these warnings

 serial   3D FFT for wavefunctions
 parallel 3D FFT for charge:
    minimum data exchange during FFTs selected (reduces bandwidth)


 total amount of memory used by VASP on root node    61338. kBytes
========================================================================

   base      :      30000. kBytes
   nonl-proj :      29425. kBytes
   fftplans  :        145. kBytes
   grid      :        538. kBytes
   one-center:         77. kBytes
   wavefun   :       1153. kBytes
 
     INWAV:  cpu time    0.30: real time    0.30
 Broyden mixing: mesh for mixing (old mesh)
   NGX = 13   NGY = 13   NGZ = 13
  (NGX  = 40   NGY  = 40   NGZ  = 40)
  gives a total of   2197 points

 charge density for first step will be calculated from the start-wavefunctions


--------------------------------------------------------------------------------------------------------


 Maximum index for augmentation-charges          517 (set IRDMAX)


--------------------------------------------------------------------------------------------------------


 initial charge from wavefunction
 First call to EWALD:  gamma=   0.457
 Maximum number of real-space cells 3x 3x 3
 Maximum number of reciprocal cells 3x 3x 3

 FEWALD executed in parallel
    FEWALD:  cpu time    0.00: real time    0.00


----------------------------------------- Iteration    1(   1)  ---------------------------------------


    POTLOK:  cpu time    0.00: real time    0.00
    SETDIJ:  cpu time    0.00: real time    0.00
     EDDAV:  cpu time    0.61: real time    0.61
       DOS:  cpu time    0.00: real time    0.00
    CHARGE:  cpu time    0.01: real time    0.01
    MIXING:  cpu time    0.00: real time    0.00
    --------------------------------------------
      LOOP:  cpu time    0.63: real time    0.63

 eigenvalue-minimisations  :  2838
 total energy-change (2. order) :-0.4790971E+02  (-0.2064626E+02)
 number of electron      36.0000068 magnetization 
 augmentation part       11.2362854 magnetization 

 Broyden mixing:
  rms(total) = 0.16001E+01    rms(broyden)= 0.15999E+01
  rms(prec ) = 0.35410E+01
  weight for this iteration     100.00

 Free energy of the ion-electron system (eV)
  ---------------------------------------------------
  alpha Z        PSCENC =       166.69949767
  Ewald energy   TEWEN  =     -2274.95761532
  -Hartree energ DENC   =      -682.38291468
  -exchange      EXHF   =         0.00000000
  -V(xc)+E(xc)   XCENC  =       137.62637681
  PAW double counting   =      4420.67901873    -4427.02111631
  entropy T*S    EENTRO =         0.00386640
  eigenvalues    EBANDS =      -340.60956828
  atomic energy  EATOM  =      2952.05274943
  ---------------------------------------------------
  free energy    TOTEN  =       -47.90970554 eV

  energy without entropy =      -47.91357194  energy(sigma->0) =      -47.91099434


--------------------------------------------------------------------------------------------------------




----------------------------------------- Iteration    1(   2)  ---------------------------------------


    POTLOK:  cpu time    0.00: real time    0.00
    SETDIJ:  cpu time    0.00: real time    0.00
     EDDAV:  cpu time    0.50: real time    0.50
       DOS:  cpu time    0.00: real time    0.00
    CHARGE:  cpu time    0.02: real time    0.02
    MIXING:  cpu time    0.00: real time    0.00
    --------------------------------------------
      LOOP:  cpu time    0.53: real time    0.53

 eigenvalue-minimisations  :  2772
 total energy-change (2. order) : 0.7184116E+01  (-0.2620956E+01)
 number of electron      36.0000071 magnetization 
 augmentation part       11.1012575 magnetization 

 Broyden mixing:
  rms(total) = 0.50631E+00    rms(broyden)= 0.50624E+00
  rms(prec ) = 0.11566E+01
  weight for this iteration     100.00

 eigenvalues of (default mixing * dielectric matrix)
  average eigenvalue GAMMA=   1.2171
  1.2171

 Free energy of the ion-electron system (eV)
  ---------------------------------------------------
  alpha Z        PSCENC =       166.69949767
  Ewald energy   TEWEN  =     -2274.95761532
  -Hartree energ DENC   =      -684.18986375
  -exchange      EXHF   =         0.00000000
  -V(xc)+E(xc)   XCENC  =       137.51562810
  PAW double counting   =      4219.18295932    -4225.27742736
  entropy T*S    EENTRO =         0.00679141
  eigenvalues    EBANDS =      -331.75830950
  atomic energy  EATOM  =      2952.05274943
  ---------------------------------------------------
  free energy    TOTEN  =       -40.72559000 eV

  energy without entropy =      -40.73238141  energy(sigma->0) =      -40.72785380


--------------------------------------------------------------------------------------------------------




----------------------------------------- Iteration    1(   3)  ---------------------------------------


    POTLOK:  cpu time    0.01: real time    0.01
    SETDIJ:  cpu time    0.00: real time    0.00
     EDDAV:  cpu time    0.65: real time    0.65
       DOS:  cpu time    0.00: real time    0.00
    CHARGE:  cpu time    0.01: real time    0.01
    MIXING:  cpu time    0.00: real time    0.00
    --------------------------------------------
      LOOP:  cpu time    0.67: real time    0.67

 eigenvalue-minimisations  :  3520
 total energy-change (2. order) : 0.6892366E+00  (-0.5391422E+00)
 number of electron      36.0000070 magnetization 
 augmentation part       11.1576947 magnetization 

 Broyden mixing:
  rms(total) = 0.32387E+00    rms(broyden)= 0.32381E+00
  rms(prec ) = 0.44696E+00
  weight for this iteration     100.00

 eigenvalues of (default mixing * dielectric matrix)
  average eigenvalue GAMMA=   0.9767
  1.2139  0.7396

 Free energy of the ion-electron system (eV)
  ---------------------------------------------------
  alpha Z        PSCENC =       166.69949767
  Ewald energy   TEWEN  =     -2274.95761532
  -Hartree energ DENC   =      -686.50320666
  -exchange      EXHF   =         0.00000000
  -V(xc)+E(xc)   XCENC  =       137.75050384
  PAW double counting   =      3917.24663429    -3923.72699743
  entropy T*S    EENTRO =         0.00672676
  eigenvalues    EBANDS =      -328.60464601
  atomic energy  EATOM  =      2952.05274943
  ---------------------------------------------------
  free energy    TOTEN  =       -40.03635342 eV

  energy without entropy =      -40.04308018  energy(sigma->0) =      -40.03859567


--------------------------------------------------------------------------------------------------------




----------------------------------------- Iteration    1(   4)  ---------------------------------------


    POTLOK:  cpu time    0.00: real time    0.00
    SETDIJ:  cpu time    0.00: real time    0.00
     EDDAV:  cpu time    0.95: real time    0.95
       DOS:  cpu time    0.00: real time    0.00
    CHARGE:  cpu time    0.02: real time    0.02
    MIXING:  cpu time    0.00: real time    0.00
    --------------------------------------------
      LOOP:  cpu time    0.97: real time    0.97

 eigenvalue-minimisations  :  4620
 total energy-change (2. order) : 0.1113092E-01  (-0.4746756E-01)
 number of electron      36.0000071 magnetization 
 augmentation part       11.1155463 magnetization 

 Broyden mixing:
  rms(total) = 0.15841E+00    rms(broyden)= 0.15840E+00
  rms(prec ) = 0.18514E+00
  weight for this iteration     100.00

 eigenvalues of (default mixing * dielectric matrix)
  average eigenvalue GAMMA=   1.2911
  1.7193  1.4898  0.6644

 Free energy of the ion-electron system (eV)
  ---------------------------------------------------
  alpha Z        PSCENC =       166.69949767
  Ewald energy   TEWEN  =     -2274.95761532
  -Hartree energ DENC   =      -686.61792216
  -exchange      EXHF   =         0.00000000
  -V(xc)+E(xc)   XCENC  =       137.69833190
  PAW double counting   =      3797.26577969    -3803.70110593
  entropy T*S    EENTRO =         0.00683785
  eigenvalues    EBANDS =      -328.47177563
  atomic energy  EATOM  =      2952.05274943
  ---------------------------------------------------
  free energy    TOTEN  =       -40.02522250 eV

  energy without entropy =      -40.03206035  energy(sigma->0) =      -40.02750178


--------------------------------------------------------------------------------------------------------




----------------------------------------- Iteration    1(   5)  ---------------------------------------


    POTLOK:  cpu time    0.00: real time    0.00
    SETDIJ:  cpu time    0.00: real time    0.00
     EDDAV:  cpu time    0.99: real time    0.99
       DOS:  cpu time    0.00: real time    0.00
    CHARGE:  cpu time    0.01: real time    0.01
    MIXING:  cpu time    0.00: real time    0.00
    --------------------------------------------
      LOOP:  cpu time    1.01: real time    1.01

 eigenvalue-minimisations  :  4950
 total energy-change (2. order) :-0.5666974E-03  (-0.3158884E-02)
 number of electron      36.0000071 magnetization 
 augmentation part       11.1261781 magnetization 

 Broyden mixing:
  rms(total) = 0.66545E-01    rms(broyden)= 0.66541E-01
  rms(prec ) = 0.85729E-01
  weight for this iteration     100.00

 eigenvalues of (default mixing * dielectric matrix)
  average eigenvalue GAMMA=   1.3443
  2.4858  1.3584  0.9135  0.6196

 Free energy of the ion-electron system (eV)
  ---------------------------------------------------
  alpha Z        PSCENC =       166.69949767
  Ewald energy   TEWEN  =     -2274.95761532
  -Hartree energ DENC   =      -686.35848213
  -exchange      EXHF   =         0.00000000
  -V(xc)+E(xc)   XCENC  =       137.70601686
  PAW double counting   =      3655.16724659    -3661.67274695
  entropy T*S    EENTRO =         0.00687387
  eigenvalues    EBANDS =      -328.66932921
  atomic energy  EATOM  =      2952.05274943
  ---------------------------------------------------
  free energy    TOTEN  =       -40.02578920 eV

  energy without entropy =      -40.03266307  energy(sigma->0) =      -40.02808049


--------------------------------------------------------------------------------------------------------




----------------------------------------- Iteration    1(   6)  ---------------------------------------


    POTLOK:  cpu time    0.00: real time    0.00
    SETDIJ:  cpu time    0.00: real time    0.00
     EDDAV:  cpu time    0.72: real time    0.72
       DOS:  cpu time    0.00: real time    0.00
    CHARGE:  cpu time    0.01: real time    0.01
    MIXING:  cpu time    0.00: real time    0.00
    --------------------------------------------
      LOOP:  cpu time    0.74: real time    0.74

 eigenvalue-minimisations  :  3784
 total energy-change (2. order) : 0.6497674E-03  (-0.7432523E-03)
 number of electron      36.0000071 magnetization 
 augmentation part       11.1232043 magnetization 

 Broyden mixing:
  rms(total) = 0.12519E-01    rms(broyden)= 0.12510E-01
  rms(prec ) = 0.20602E-01
  weight for this iteration     100.00

 eigenvalues of (default mixing * dielectric matrix)
  average eigenvalue GAMMA=   1.2314
  2.5229  1.3419  0.9906  0.6506  0.6506

 Free energy of the ion-electron system (eV)
  ---------------------------------------------------
  alpha Z        PSCENC =       166.69949767
  Ewald energy   TEWEN  =     -2274.95761532
  -Hartree energ DENC   =      -686.43807128
  -exchange      EXHF   =         0.00000000
  -V(xc)+E(xc)   XCENC  =       137.70992746
  PAW double counting   =      3589.94271608    -3596.46282266
  entropy T*S    EENTRO =         0.00685607
  eigenvalues    EBANDS =      -328.57837688
  atomic energy  EATOM  =      2952.05274943
  ---------------------------------------------------
  free energy    TOTEN  =       -40.02513943 eV

  energy without entropy =      -40.03199550  energy(sigma->0) =      -40.02742479


--------------------------------------------------------------------------------------------------------




----------------------------------------- Iteration    1(   7)  ---------------------------------------


    POTLOK:  cpu time    0.00: real time    0.00
    SETDIJ:  cpu time    0.00: real time    0.00
     EDDAV:  cpu time    1.05: real time    1.05
       DOS:  cpu time    0.00: real time    0.00
    --------------------------------------------
      LOOP:  cpu time    1.05: real time    1.05

 eigenvalue-minimisations  :  5170
 total energy-change (2. order) : 0.8009304E-04  (-0.8852157E-04)
 number of electron      36.0000071 magnetization 
 augmentation part       11.1232043 magnetization 

 Free energy of the ion-electron system (eV)
  ---------------------------------------------------
  alpha Z        PSCENC =       166.69949767
  Ewald energy   TEWEN  =     -2274.95761532
  -Hartree energ DENC   =      -686.51148423
  -exchange      EXHF   =         0.00000000
  -V(xc)+E(xc)   XCENC  =       137.71355533
  PAW double counting   =      3579.02104948    -3585.54176626
  entropy T*S    EENTRO =         0.00686021
  eigenvalues    EBANDS =      -328.50790566
  atomic energy  EATOM  =      2952.05274943
  ---------------------------------------------------
  free energy    TOTEN  =       -40.02505934 eV

  energy without entropy =      -40.03191955  energy(sigma->0) =      -40.02734607


--------------------------------------------------------------------------------------------------------




 average (electrostatic) potential at core
  the test charge radii are     1.0397  1.2658  0.7215
  (the norm of the test charge is              1.0000)
       1 -52.9622       2 -45.6530       3 -70.0580       4 -70.1066       5 -70.1716
 
 
 
 E-fermi :   3.6684     XC(G=0): -11.0059     alpha+bet :-13.2781


 k-point     1 :       0.0000    0.0000    0.0000
  band No.  band energies     occupation 
      1     -28.9238      2.00000
      2     -28.8967      2.00000
      3     -28.8819      2.00000
      4     -16.6249      2.00000
      5     -16.6216      2.00000
      6     -16.6159      2.00000
      7     -13.8650      2.00000
      8     -12.7831      2.00000
      9     -12.7334      2.00000
     10       0.6580      2.00000
     11       0.6694      2.00000
     12       0.6944      2.00000
     13       2.4064      2.00000
     14       2.4103      2.00000
     15       2.5549      2.00000
     16       3.0178      2.00004
     17       3.0893      2.00033
     18       3.1319      2.00098
     19       5.8125     -0.00000
     20       5.9862     -0.00000
     21       6.0683     -0.00000
     22       8.2655     -0.00000

 k-point     2 :       0.2000    0.0000    0.0000
  band No.  band energies     occupation 
      1     -28.9229      2.00000
      2     -28.9085      2.00000
      3     -28.8954      2.00000
      4     -16.7080      2.00000
      5     -16.6183      2.00000
      6     -16.6123      2.00000
      7     -13.6520      2.00000
      8     -12.7698      2.00000
      9     -12.6327      2.00000
     10       0.2482      2.00000
     11       0.6906      2.00000
     12       0.7184      2.00000
     13       1.8237      2.00000
     14       1.9798      2.00000
     15       2.2796      2.00000
     16       2.3489      2.00000
     17       2.9010      2.00000
     18       2.9882      2.00002
     19       6.1122     -0.00000
     20       6.4637     -0.00000
     21       6.5546     -0.00000
     22       8.4095     -0.00000

 k-point     3 :       0.4000    0.0000    0.0000
  band No.  band energies     occupation 
      1     -28.9510      2.00000
      2     -28.9208      2.00000
      3     -28.8937      2.00000
      4     -16.8318      2.00000
      5     -16.6124      2.00000
      6     -16.6063      2.00000
      7     -13.3096      2.00000
      8     -12.7463      2.00000
      9     -12.4503      2.00000
     10      -0.4745      2.00000
     11       0.8185      2.00000
     12       0.8498      2.00000
     13       1.0257      2.00000
     14       1.3124      2.00000
     15       1.5016      2.00000
     16       1.8722      2.00000
     17       2.7139      2.00000
     18       2.8706      2.00000
     19       6.2267     -0.00000
     20       7.4234     -0.00000
     21       7.5343     -0.00000
     22       8.4112     -0.00000

 k-point     4 :       0.0000    0.2000    0.0000
  band No.  band energies     occupation 
      1     -28.9268      2.00000
      2     -28.9191      2.00000
      3     -28.8809      2.00000
      4     -16.7044      2.00000
      5     -16.6211      2.00000
      6     -16.6128      2.00000
      7     -13.6477      2.00000
      8     -12.7542      2.00000
      9     -12.6513      2.00000
     10       0.2404      2.00000
     11       0.6759      2.00000
     12       0.7099      2.00000
     13       1.8134      2.00000
     14       1.9973      2.00000
     15       2.2605      2.00000
     16       2.3496      2.00000
     17       2.9027      2.00000
     18       3.0271      2.00006
     19       6.0316     -0.00000
     20       6.5250     -0.00000
     21       6.5907     -0.00000
     22       8.3702     -0.00000

 k-point     5 :       0.2000    0.2000    0.0000
  band No.  band energies     occupation 
      1     -28.9258      2.00000
      2     -28.9185      2.00000
      3     -28.9071      2.00000
      4     -16.7119      2.00000
      5     -16.6676      2.00000
      6     -16.6089      2.00000
      7     -13.4717      2.00000
      8     -12.7087      2.00000
      9     -12.5795      2.00000
     10       0.0346      2.00000
     11       0.4476      2.00000
     12       0.7244      2.00000
     13       1.1301      2.00000
     14       1.6825      2.00000
     15       1.9330      2.00000
     16       2.3637      2.00000
     17       2.8120      2.00000
     18       2.8600      2.00000
     19       6.4888     -0.00000
     20       6.6655     -0.00000
     21       6.8138     -0.00000
     22       8.8507     -0.00000

 k-point     6 :       0.4000    0.2000    0.0000
  band No.  band energies     occupation 
      1     -28.9502      2.00000
      2     -28.9241      2.00000
      3     -28.9162      2.00000
      4     -16.7999      2.00000
      5     -16.6613      2.00000
      6     -16.6026      2.00000
      7     -13.2122      2.00000
      8     -12.6530      2.00000
      9     -12.3994      2.00000
     10      -0.5011      2.00000
     11      -0.0337      2.00000
     12       0.5262      2.00000
     13       0.8298      2.00000
     14       1.1738      2.00000
     15       1.6103      2.00000
     16       2.0555      2.00000
     17       2.6528      2.00000
     18       2.8195      2.00000
     19       6.6738     -0.00000
     20       7.4504     -0.00000
     21       7.5556     -0.00000
     22       8.9543     -0.00000

 k-point     7 :      -0.4000    0.2000    0.0000
  band No.  band energies     occupation 
      1     -28.9502      2.00000
      2     -28.9241      2.00000
      3     -28.9162      2.00000
      4     -16.7997      2.00000
      5     -16.6615      2.00000
      6     -16.6026      2.00000
      7     -13.2120      2.00000
      8     -12.6527      2.00000
      9     -12.3995      2.00000
     10      -0.5190      2.00000
     11      -0.0465      2.00000
     12       0.5617      2.00000
     13       0.8238      2.00000
     14       1.1802      2.00000
     15       1.6130      2.00000
     16       2.0492      2.00000
     17       2.6535      2.00000
     18       2.8220      2.00000
     19       6.6704     -0.00000
     20       7.4451     -0.00000
     21       7.5603     -0.00000
     22       8.9547     -0.00000

 k-point     8 :      -0.2000    0.2000    0.0000
  band No.  band energies     occupation 
      1     -28.9258      2.00000
      2     -28.9186      2.00000
      3     -28.9070      2.00000
      4     -16.7106      2.00000
      5     -16.6689      2.00000
      6     -16.6089      2.00000
      7     -13.4713      2.00000
      8     -12.7084      2.00000
      9     -12.5798      2.00000
     10       0.0187      2.00000
     11       0.4070      2.00000
     12       0.7211      2.00000
     13       1.1917      2.00000
     14       1.6872      2.00000
     15       1.9394      2.00000
     16       2.3471      2.00000
     17       2.8130      2.00000
     18       2.8777      2.00000
     19       6.4612     -0.00000
     20       6.6737     -0.00000
     21       6.8193     -0.00000
     22       8.8542     -0.00000

 k-point     9 :       0.0000    0.4000    0.0000
  band No.  band energies     occupation 
      1     -28.9665      2.00000
      2     -28.9201      2.00000
      3     -28.8791      2.00000
      4     -16.8278      2.00000
      5     -16.6153      2.00000
      6     -16.6069      2.00000
      7     -13.2961      2.00000
      8     -12.7262      2.00000
      9     -12.4798      2.00000
     10      -0.5175      2.00000
     11       0.7925      2.00000
     12       0.8119      2.00000
     13       1.0730      2.00000
     14       1.3317      2.00000
     15       1.4460      2.00000
     16       1.8616      2.00000
     17       2.7768      2.00000
     18       2.9290      2.00000
     19       6.1433     -0.00000
     20       7.4821     -0.00000
     21       7.5465     -0.00000
     22       8.3762     -0.00000

 k-point    10 :       0.2000    0.4000    0.0000
  band No.  band energies     occupation 
      1     -28.9657      2.00000
      2     -28.9194      2.00000
      3     -28.9056      2.00000
      4     -16.7961      2.00000
      5     -16.6647      2.00000
      6     -16.6026      2.00000
      7     -13.2061      2.00000
      8     -12.6284      2.00000
      9     -12.4274      2.00000
     10      -0.5392      2.00000
     11      -0.0509      2.00000
     12       0.5561      2.00000
     13       0.8091      2.00000
     14       1.1784      2.00000
     15       1.5979      2.00000
     16       2.0700      2.00000
     17       2.7037      2.00000
     18       2.8133      2.00000
     19       6.6115     -0.00000
     20       7.4951     -0.00000
     21       7.5618     -0.00000
     22       8.9370     -0.00000

 k-point    11 :       0.4000    0.4000    0.0000
  band No.  band energies     occupation 
      1     -28.9644      2.00000
      2     -28.9487      2.00000
      3     -28.9172      2.00000
      4     -16.7521      2.00000
      5     -16.7354      2.00000
      6     -16.5956      2.00000
      7     -13.1474      2.00000
      8     -12.3815      2.00000
      9     -12.3153      2.00000
     10      -0.8781      2.00000
     11      -0.5840      2.00000
     12      -0.2928      2.00000
     13       0.8249      2.00000
     14       0.9878      2.00000
     15       1.6590      2.00000
     16       1.8041      2.00000
     17       2.1986      2.00000
     18       3.4808      2.03496
     19       7.4871     -0.00000
     20       7.5669     -0.00000
     21       7.8479     -0.00000
     22       9.1516      0.00000

 k-point    12 :      -0.4000    0.4000    0.0000
  band No.  band energies     occupation 
      1     -28.9644      2.00000
      2     -28.9487      2.00000
      3     -28.9172      2.00000
      4     -16.7509      2.00000
      5     -16.7366      2.00000
      6     -16.5956      2.00000
      7     -13.1474      2.00000
      8     -12.3807      2.00000
      9     -12.3159      2.00000
     10      -0.8975      2.00000
     11      -0.5915      2.00000
     12      -0.2639      2.00000
     13       0.8161      2.00000
     14       0.9974      2.00000
     15       1.6676      2.00000
     16       1.7929      2.00000
     17       2.2003      2.00000
     18       3.4805      2.03526
     19       7.4837     -0.00000
     20       7.5659     -0.00000
     21       7.8518     -0.00000
     22       9.1512      0.00000

 k-point    13 :      -0.2000    0.4000    0.0000
  band No.  band energies     occupation 
      1     -28.9657      2.00000
      2     -28.9194      2.00000
      3     -28.9056      2.00000
      4     -16.7959      2.00000
      5     -16.6649      2.00000
      6     -16.6026      2.00000
      7     -13.2060      2.00000
      8     -12.6280      2.00000
      9     -12.4276      2.00000
     10      -0.5566      2.00000
     11      -0.0612      2.00000
     12       0.5884      2.00000
     13       0.8035      2.00000
     14       1.1847      2.00000
     15       1.6002      2.00000
     16       2.0643      2.00000
     17       2.7033      2.00000
     18       2.8167      2.00000
     19       6.6083     -0.00000
     20       7.4871     -0.00000
     21       7.5688     -0.00000
     22       8.9376     -0.00000

 k-point    14 :       0.0000    0.0000    0.2000
  band No.  band energies     occupation 
      1     -28.9503      2.00000
      2     -28.8958      2.00000
      3     -28.8808      2.00000
      4     -16.6994      2.00000
      5     -16.6211      2.00000
      6     -16.6175      2.00000
      7     -13.6411      2.00000
      8     -12.7278      2.00000
      9     -12.6818      2.00000
     10       0.2320      2.00000
     11       0.6665      2.00000
     12       0.6782      2.00000
     13       1.8749      2.00000
     14       1.9547      2.00000
     15       2.2510      2.00000
     16       2.2733      2.00000
     17       2.9937      2.00002
     18       3.0585      2.00014
     19       5.8893     -0.00000
     20       6.6246     -0.00000
     21       6.6570     -0.00000
     22       8.3110     -0.00000

 k-point    15 :       0.2000    0.0000    0.2000
  band No.  band energies     occupation 
      1     -28.9493      2.00000
      2     -28.9076      2.00000
      3     -28.8946      2.00000
      4     -16.7098      2.00000
      5     -16.6646      2.00000
      6     -16.6137      2.00000
      7     -13.4615      2.00000
      8     -12.7010      2.00000
      9     -12.5952      2.00000
     10       0.0299      2.00000
     11       0.4323      2.00000
     12       0.6957      2.00000
     13       1.0958      2.00000
     14       1.7046      2.00000
     15       2.0656      2.00000
     16       2.3575      2.00000
     17       2.7626      2.00000
     18       2.7978      2.00000
     19       6.4889     -0.00000
     20       6.7036     -0.00000
     21       6.8504     -0.00000
     22       8.7900     -0.00000

 k-point    16 :       0.4000    0.0000    0.2000
  band No.  band energies     occupation 
      1     -28.9509      2.00000
      2     -28.9467      2.00000
      3     -28.8929      2.00000
      4     -16.8000      2.00000
      5     -16.6564      2.00000
      6     -16.6074      2.00000
      7     -13.1899      2.00000
      8     -12.6720      2.00000
      9     -12.4008      2.00000
     10      -0.5003      2.00000
     11      -0.0645      2.00000
     12       0.5252      2.00000
     13       0.8006      2.00000
     14       1.2094      2.00000
     15       1.6273      2.00000
     16       2.1503      2.00000
     17       2.5457      2.00000
     18       2.7895      2.00000
     19       6.7446     -0.00000
     20       7.4454     -0.00000
     21       7.5607     -0.00000
     22       8.9368     -0.00000

 k-point    17 :      -0.4000    0.0000    0.2000
  band No.  band energies     occupation 
      1     -28.9511      2.00000
      2     -28.9465      2.00000
      3     -28.8929      2.00000
      4     -16.7997      2.00000
      5     -16.6568      2.00000
      6     -16.6074      2.00000
      7     -13.1896      2.00000
      8     -12.6717      2.00000
      9     -12.4009      2.00000
     10      -0.5289      2.00000
     11      -0.0790      2.00000
     12       0.5757      2.00000
     13       0.7927      2.00000
     14       1.2189      2.00000
     15       1.6287      2.00000
     16       2.1441      2.00000
     17       2.5464      2.00000
     18       2.7916      2.00000
     19       6.7407     -0.00000
     20       7.4425     -0.00000
     21       7.5625     -0.00000
     22       8.9355     -0.00000

 k-point    18 :      -0.2000    0.0000    0.2000
  band No.  band energies     occupation 
      1     -28.9493      2.00000
      2     -28.9076      2.00000
      3     -28.8946      2.00000
      4     -16.7081      2.00000
      5     -16.6664      2.00000
      6     -16.6137      2.00000
      7     -13.4607      2.00000
      8     -12.7006      2.00000
      9     -12.5958      2.00000
     10       0.0032      2.00000
     11       0.3764      2.00000
     12       0.6906      2.00000
     13       1.1851      2.00000
     14       1.7118      2.00000
     15       2.0787      2.00000
     16       2.3374      2.00000
     17       2.7648      2.00000
     18       2.8148      2.00000
     19       6.4618     -0.00000
     20       6.7151     -0.00000
     21       6.8470     -0.00000
     22       8.7921     -0.00000

 k-point    19 :       0.0000    0.2000    0.2000
  band No.  band energies     occupation 
      1     -28.9495      2.00000
      2     -28.9222      2.00000
      3     -28.8798      2.00000
      4     -16.7085      2.00000
      5     -16.6624      2.00000
      6     -16.6171      2.00000
      7     -13.4549      2.00000
      8     -12.6846      2.00000
      9     -12.6171      2.00000
     10       0.0345      2.00000
     11       0.4511      2.00000
     12       0.6832      2.00000
     13       1.0394      2.00000
     14       1.7072      2.00000
     15       2.1516      2.00000
     16       2.3735      2.00000
     17       2.7244      2.00000
     18       2.7401      2.00000
     19       6.5436     -0.00000
     20       6.6809     -0.00000
     21       6.8704     -0.00000
     22       8.7540     -0.00000

 k-point    20 :       0.2000    0.2000    0.2000
  band No.  band energies     occupation 
      1     -28.9485      2.00000
      2     -28.9212      2.00000
      3     -28.9063      2.00000
      4     -16.7097      2.00000
      5     -16.6589      2.00000
      6     -16.6529      2.00000
      7     -13.2838      2.00000
      8     -12.6270      2.00000
      9     -12.5806      2.00000
     10      -0.1303      2.00000
     11       0.3945      2.00000
     12       0.4275      2.00000
     13       1.0268      2.00000
     14       1.0536      2.00000
     15       1.4276      2.00000
     16       2.5895      2.00000
     17       2.6557      2.00000
     18       2.9195      2.00000
     19       6.8199     -0.00000
     20       6.9360     -0.00000
     21       6.9559     -0.00000
     22       9.4815      0.00000

 k-point    21 :       0.4000    0.2000    0.2000
  band No.  band energies     occupation 
      1     -28.9498      2.00000
      2     -28.9459      2.00000
      3     -28.9195      2.00000
      4     -16.7738      2.00000
      5     -16.6605      2.00000
      6     -16.6381      2.00000
      7     -13.0351      2.00000
      8     -12.6268      2.00000
      9     -12.3789      2.00000
     10      -0.5201      2.00000
     11      -0.0940      2.00000
     12       0.1836      2.00000
     13       0.3487      2.00000
     14       0.7164      2.00000
     15       1.3026      2.00000
     16       2.5615      2.00000
     17       2.5741      2.00000
     18       2.9621      2.00001
     19       7.0498     -0.00000
     20       7.5192     -0.00000
     21       7.6334     -0.00000
     22       9.8058      0.00000

 k-point    22 :      -0.4000    0.2000    0.2000
  band No.  band energies     occupation 
      1     -28.9501      2.00000
      2     -28.9456      2.00000
      3     -28.9194      2.00000
      4     -16.7733      2.00000
      5     -16.6611      2.00000
      6     -16.6380      2.00000
      7     -13.0343      2.00000
      8     -12.6268      2.00000
      9     -12.3791      2.00000
     10      -0.5581      2.00000
     11      -0.1171      2.00000
     12       0.1685      2.00000
     13       0.4015      2.00000
     14       0.7340      2.00000
     15       1.3179      2.00000
     16       2.5681      2.00000
     17       2.5787      2.00000
     18       2.9541      2.00001
     19       7.0468     -0.00000
     20       7.5059     -0.00000
     21       7.6369     -0.00000
     22       9.8224      0.00000

 k-point    23 :      -0.2000    0.2000    0.2000
  band No.  band energies     occupation 
      1     -28.9485      2.00000
      2     -28.9213      2.00000
      3     -28.9062      2.00000
      4     -16.7077      2.00000
      5     -16.6608      2.00000
      6     -16.6530      2.00000
      7     -13.2824      2.00000
      8     -12.6272      2.00000
      9     -12.5809      2.00000
     10      -0.1567      2.00000
     11       0.3433      2.00000
     12       0.3976      2.00000
     13       1.0116      2.00000
     14       1.0878      2.00000
     15       1.5237      2.00000
     16       2.5971      2.00000
     17       2.6951      2.00000
     18       2.9040      2.00000
     19       6.7569     -0.00000
     20       6.9461     -0.00000
     21       6.9629     -0.00000
     22       9.4841      0.00000

 k-point    24 :       0.0000    0.4000    0.2000
  band No.  band energies     occupation 
      1     -28.9661      2.00000
      2     -28.9466      2.00000
      3     -28.8781      2.00000
      4     -16.7964      2.00000
      5     -16.6563      2.00000
      6     -16.6108      2.00000
      7     -13.1678      2.00000
      8     -12.6603      2.00000
      9     -12.4306      2.00000
     10      -0.5268      2.00000
     11      -0.0959      2.00000
     12       0.5346      2.00000
     13       0.7776      2.00000
     14       1.2031      2.00000
     15       1.6427      2.00000
     16       2.2519      2.00000
     17       2.5088      2.00000
     18       2.7598      2.00000
     19       6.7277     -0.00000
     20       7.4942     -0.00000
     21       7.5614     -0.00000
     22       8.9105     -0.00000

 k-point    25 :       0.2000    0.4000    0.2000
  band No.  band energies     occupation 
      1     -28.9651      2.00000
      2     -28.9456      2.00000
      3     -28.9047      2.00000
      4     -16.7703      2.00000
      5     -16.6618      2.00000
      6     -16.6401      2.00000
      7     -13.0226      2.00000
      8     -12.6072      2.00000
      9     -12.4084      2.00000
     10      -0.5425      2.00000
     11      -0.1221      2.00000
     12       0.1542      2.00000
     13       0.3431      2.00000
     14       0.7333      2.00000
     15       1.3593      2.00000
     16       2.5444      2.00000
     17       2.6128      2.00000
     18       2.9519      2.00000
     19       7.0070     -0.00000
     20       7.5607     -0.00000
     21       7.6241     -0.00000
     22       9.7852      0.00000

 k-point    26 :       0.4000    0.4000    0.2000
  band No.  band energies     occupation 
      1     -28.9634      2.00000
      2     -28.9480      2.00000
      3     -28.9429      2.00000
      4     -16.7343      2.00000
      5     -16.7193      2.00000
      6     -16.6312      2.00000
      7     -12.9147      2.00000
      8     -12.3986      2.00000
      9     -12.3400      2.00000
     10      -0.7567      2.00000
     11      -0.5451      2.00000
     12      -0.2797      2.00000
     13       0.0957      2.00000
     14       0.1804      2.00000
     15       0.9867      2.00000
     16       2.6488      2.00000
     17       2.7115      2.00000
     18       3.5129      1.96810
     19       7.6521     -0.00000
     20       7.7064     -0.00000
     21       7.9263     -0.00000
     22       9.7462      0.00000

 k-point    27 :      -0.4000    0.4000    0.2000
  band No.  band energies     occupation 
      1     -28.9634      2.00000
      2     -28.9484      2.00000
      3     -28.9425      2.00000
      4     -16.7328      2.00000
      5     -16.7206      2.00000
      6     -16.6314      2.00000
      7     -12.9143      2.00000
      8     -12.3979      2.00000
      9     -12.3406      2.00000
[...]
     17       3.3894      2.06743
     18       3.5129      1.74832
     19       7.9381     -0.00000
     20       8.0456     -0.00000
     21       8.0679     -0.00000
     22       9.5829      0.00000

 k-point    53 :      -0.2000    0.4000    0.4000
  band No.  band energies     occupation 
      1     -29.0247      2.00000
      2     -29.0164      2.00000
      3     -28.9632      2.00000
      4     -16.6398      2.00000
      5     -16.6059      2.00000
      6     -16.5194      2.00000
      7     -12.8820      2.00000
      8     -12.4412      2.00000
      9     -12.3919      2.00000
     10      -0.8053      2.00000
     11      -0.6139      2.00000
     12      -0.3879      2.00000
     13       0.0196      2.00000
     14       0.1883      2.00000
     15       1.0639      2.00000
     16       2.6765      2.00000
     17       2.6993      2.00000
     18       3.4372      2.01785
     19       7.5477     -0.00000
     20       7.6790     -0.00000
     21       7.9114     -0.00000
     22       9.6862      0.00000

 k-point    54 :       0.0000   -0.4000    0.4000
  band No.  band energies     occupation 
      1     -29.0261      2.00000
      2     -29.0175      2.00000
      3     -28.9368      2.00000
      4     -16.6560      2.00000
      5     -16.6271      2.00000
      6     -16.4787      2.00000
      7     -13.1093      2.00000
      8     -12.4297      2.00000
      9     -12.3687      2.00000
     10      -0.9573      2.00000
     11      -0.6706      2.00000
     12      -0.2933      2.00000
     13       0.7386      2.00000
     14       0.9370      2.00000
     15       1.7573      2.00000
     16       1.8262      2.00000
     17       2.1406      2.00000
     18       3.4166      2.04788
     19       7.4414     -0.00000
     20       7.5306     -0.00000
     21       7.8389     -0.00000
     22       9.0990      0.00000

 k-point    55 :       0.2000   -0.4000    0.4000
  band No.  band energies     occupation 
      1     -29.0249      2.00000
      2     -29.0163      2.00000
      3     -28.9632      2.00000
      4     -16.6379      2.00000
      5     -16.6084      2.00000
      6     -16.5191      2.00000
      7     -12.8810      2.00000
      8     -12.4413      2.00000
      9     -12.3924      2.00000
     10      -0.8479      2.00000
     11      -0.6519      2.00000
     12      -0.2759      2.00000
     13       0.0439      2.00000
     14       0.1649      2.00000
     15       1.0377      2.00000
     16       2.6677      2.00000
     17       2.6913      2.00000
     18       3.4347      2.02235
     19       7.5660     -0.00000
     20       7.6674     -0.00000
     21       7.9169     -0.00000
     22       9.7017      0.00000

 k-point    56 :       0.4000   -0.4000    0.4000
  band No.  band energies     occupation 
      1     -29.0229      2.00000
      2     -29.0145      2.00000
      3     -29.0052      2.00000
      4     -16.6108      2.00000
      5     -16.5827      2.00000
      6     -16.5760      2.00000
      7     -12.5267      2.00000
      8     -12.4326      2.00000
      9     -12.4179      2.00000
     10      -0.7940      2.00000
     11      -0.6110      2.00000
     12      -0.5156      2.00000
     13      -0.4695      2.00000
     14      -0.2597      2.00000
     15      -0.1648      2.00000
     16       3.3718      2.07087
     17       3.3959      2.06453
     18       3.4966      1.82995
     19       7.9406     -0.00000
     20       8.0437     -0.00000
     21       8.0666     -0.00000
     22       9.5536      0.00000

 k-point    57 :      -0.4000   -0.4000    0.4000
  band No.  band energies     occupation 
      1     -29.0229      2.00000
      2     -29.0143      2.00000
      3     -29.0053      2.00000
      4     -16.6108      2.00000
      5     -16.5821      2.00000
      6     -16.5765      2.00000
      7     -12.5284      2.00000
      8     -12.4285      2.00000
      9     -12.4205      2.00000
     10      -0.7948      2.00000
     11      -0.6184      2.00000
     12      -0.5246      2.00000
     13      -0.4613      2.00000
     14      -0.2523      2.00000
     15      -0.1621      2.00000
     16       3.3793      2.07012
     17       3.3952      2.06484
     18       3.4914      1.85322
     19       7.9422     -0.00000
     20       8.0436     -0.00000
     21       8.0647     -0.00000
     22       9.5447      0.00000

 k-point    58 :      -0.2000   -0.4000    0.4000
  band No.  band energies     occupation 
      1     -29.0249      2.00000
      2     -29.0162      2.00000
      3     -28.9632      2.00000
      4     -16.6378      2.00000
      5     -16.6083      2.00000
      6     -16.5191      2.00000
      7     -12.8815      2.00000
      8     -12.4407      2.00000
      9     -12.3927      2.00000
     10      -0.8485      2.00000
     11      -0.6536      2.00000
     12      -0.2777      2.00000
     13       0.0400      2.00000
     14       0.1692      2.00000
     15       1.0431      2.00000
     16       2.6691      2.00000
     17       2.6942      2.00000
     18       3.4334      2.02450
     19       7.5685     -0.00000
     20       7.6618     -0.00000
     21       7.9169     -0.00000
     22       9.6968      0.00000

 k-point    59 :       0.0000   -0.2000    0.4000
  band No.  band energies     occupation 
      1     -29.0270      2.00000
      2     -28.9752      2.00000
      3     -28.9385      2.00000
      4     -16.7029      2.00000
      5     -16.5511      2.00000
      6     -16.4862      2.00000
      7     -13.1842      2.00000
      8     -12.6820      2.00000
      9     -12.4626      2.00000
     10      -0.6452      2.00000
     11      -0.1296      2.00000
     12       0.5975      2.00000
     13       0.7362      2.00000
     14       1.1717      2.00000
     15       1.6051      2.00000
     16       2.1923      2.00000
     17       2.5568      2.00000
     18       2.7372      2.00000
     19       6.5649     -0.00000
     20       7.4606     -0.00000
     21       7.5473     -0.00000
     22       8.8466     -0.00000

 k-point    60 :       0.2000   -0.2000    0.4000
  band No.  band energies     occupation 
      1     -29.0260      2.00000
      2     -28.9745      2.00000
      3     -28.9647      2.00000
      4     -16.6748      2.00000
      5     -16.5486      2.00000
      6     -16.5270      2.00000
      7     -13.0239      2.00000
      8     -12.6383      2.00000
      9     -12.4435      2.00000
     10      -0.6414      2.00000
     11      -0.2076      2.00000
     12       0.1310      2.00000
     13       0.3367      2.00000
     14       0.6913      2.00000
     15       1.4348      2.00000
     16       2.5408      2.00000
     17       2.6578      2.00000
     18       2.8601      2.00000
     19       6.8606     -0.00000
     20       7.5480     -0.00000
     21       7.5875     -0.00000
     22       9.7399      0.00000

 k-point    61 :       0.4000   -0.2000    0.4000
  band No.  band energies     occupation 
      1     -29.0245      2.00000
      2     -29.0078      2.00000
      3     -28.9721      2.00000
      4     -16.6358      2.00000
      5     -16.6087      2.00000
      6     -16.5211      2.00000
      7     -12.8954      2.00000
      8     -12.4353      2.00000
      9     -12.3862      2.00000
     10      -0.8032      2.00000
     11      -0.6222      2.00000
     12      -0.3793      2.00000
     13       0.0265      2.00000
     14       0.2037      2.00000
     15       1.0616      2.00000
     16       2.6873      2.00000
     17       2.7014      2.00000
     18       3.4286      2.03214
     19       7.5404     -0.00000
     20       7.6727     -0.00000
     21       7.9106     -0.00000
     22       9.6774      0.00000

 k-point    62 :      -0.4000   -0.2000    0.4000
  band No.  band energies     occupation 
      1     -29.0245      2.00000
      2     -29.0077      2.00000
      3     -28.9721      2.00000
      4     -16.6346      2.00000
      5     -16.6106      2.00000
      6     -16.5208      2.00000
      7     -12.8944      2.00000
      8     -12.4352      2.00000
      9     -12.3866      2.00000
     10      -0.8334      2.00000
     11      -0.6479      2.00000
     12      -0.2977      2.00000
     13       0.0458      2.00000
     14       0.1845      2.00000
     15       1.0393      2.00000
     16       2.6707      2.00000
     17       2.7006      2.00000
     18       3.4285      2.03229
     19       7.5660     -0.00000
     20       7.6527     -0.00000
     21       7.9159     -0.00000
     22       9.7026      0.00000

 k-point    63 :      -0.2000   -0.2000    0.4000
  band No.  band energies     occupation 
      1     -29.0261      2.00000
      2     -28.9741      2.00000
      3     -28.9650      2.00000
      4     -16.6748      2.00000
      5     -16.5509      2.00000
      6     -16.5254      2.00000
      7     -13.0211      2.00000
      8     -12.6417      2.00000
      9     -12.4420      2.00000
     10      -0.6660      2.00000
     11      -0.1938      2.00000
     12       0.0918      2.00000
     13       0.4007      2.00000
     14       0.7573      2.00000
     15       1.3796      2.00000
     16       2.5429      2.00000
     17       2.5913      2.00000
     18       2.8645      2.00000
     19       6.9206     -0.00000
     20       7.5040     -0.00000
     21       7.6105     -0.00000
     22       9.7483      0.00000


--------------------------------------------------------------------------------------------------------


 soft charge-density along one line, spin component           1
         0         1         2         3         4         5         6         7         8         9
 total charge-density along one line
 
 pseudopotential strength for first ion, spin component:           1
-30.156  -0.005  -0.003   7.053   0.003   0.002   0.002   0.003
 -0.005 -30.154  -0.003   0.003   7.052   0.002  -0.000   0.002
 -0.003  -0.003 -30.159   0.002   0.002   7.055   0.002  -0.000
  7.053   0.003   0.002   3.780  -0.001  -0.001   0.001   0.002
  0.003   7.052   0.002  -0.001   3.781  -0.001   0.000   0.002
  0.002   0.002   7.055  -0.001  -0.001   3.779   0.002   0.000
  0.002  -0.000   0.002   0.001   0.000   0.002  -3.622  -0.002
  0.003   0.002  -0.000   0.002   0.002   0.000  -0.002  -3.620
  0.006  -0.014   0.004  -0.004   0.009  -0.002   0.001  -0.001
 -0.000   0.002   0.003   0.000   0.001   0.002  -0.003  -0.002
  0.010  -0.000  -0.007  -0.006   0.000   0.004  -0.000   0.002
  0.002  -0.000   0.002   0.001   0.000   0.002  -3.794  -0.002
  0.003   0.003  -0.000   0.003   0.002   0.000  -0.002  -3.791
  0.007  -0.017   0.005  -0.004   0.010  -0.003   0.002  -0.002
 -0.000   0.002   0.003   0.000   0.001   0.003  -0.003  -0.002
  0.012  -0.000  -0.008  -0.008   0.000   0.005  -0.000   0.003
  0.004   0.005   0.003  -0.002  -0.002  -0.001   0.001   0.001
  0.012   0.015   0.008  -0.005  -0.005  -0.003   0.002   0.003
 total augmentation occupancy for first ion, spin component:           1
  1.976  -0.000  -0.000  -0.064  -0.000  -0.000  -0.004  -0.009  -0.030   0.000  -0.051   0.004   0.008   0.026  -0.000   0.044
 -0.000   1.976  -0.000  -0.000  -0.064  -0.000   0.000  -0.007   0.071  -0.005   0.000  -0.000   0.006  -0.061   0.004  -0.000
 -0.000  -0.000   1.976  -0.000  -0.000  -0.065  -0.006   0.000  -0.020  -0.008   0.035   0.005  -0.000   0.018   0.008  -0.030
 -0.064  -0.000  -0.000   0.341  -0.005  -0.003  -0.040  -0.068  -0.214   0.003  -0.368   0.028   0.047   0.149  -0.002   0.256
 -0.000  -0.064  -0.000  -0.005   0.344  -0.003   0.002  -0.058   0.511  -0.041   0.001  -0.002   0.041  -0.357   0.028  -0.001
 -0.000  -0.000  -0.065  -0.003  -0.003   0.337  -0.055   0.003  -0.148  -0.066   0.255   0.039  -0.002   0.103   0.046  -0.177
 -0.004   0.000  -0.006  -0.040   0.002  -0.055   3.895  -0.006   0.166  -0.011   0.002  -2.438   0.003  -0.120   0.005  -0.001
 -0.009  -0.007   0.000  -0.068  -0.058   0.003  -0.006   4.054  -0.146  -0.004   0.247   0.003  -2.540   0.105   0.002  -0.178
 -0.030   0.071  -0.020  -0.214   0.511  -0.148   0.166  -0.146  14.034  -0.103   0.108  -0.120   0.106  -9.778   0.074  -0.080
  0.000  -0.005  -0.008   0.003  -0.041  -0.066  -0.011  -0.004  -0.103   3.965  -0.170   0.005   0.002   0.074  -2.484   0.123
 -0.051   0.000   0.035  -0.368   0.001   0.255   0.002   0.247   0.108  -0.170  13.698  -0.001  -0.179  -0.080   0.123  -9.530
  0.004  -0.000   0.005   0.028  -0.002   0.039  -2.438   0.003  -0.120   0.005  -0.001   1.534  -0.001   0.088  -0.002   0.001
  0.008   0.006  -0.000   0.047   0.041  -0.002   0.003  -2.540   0.106   0.002  -0.179  -0.001   1.600  -0.077  -0.000   0.130
  0.026  -0.061   0.018   0.149  -0.357   0.103  -0.120   0.105  -9.778   0.074  -0.080   0.088  -0.077   6.885  -0.054   0.060
 -0.000   0.004   0.008  -0.002   0.028   0.046   0.005   0.002   0.074  -2.484   0.123  -0.002  -0.000  -0.054   1.563  -0.090
  0.044  -0.000  -0.030   0.256  -0.001  -0.177  -0.001  -0.178  -0.080   0.123  -9.530   0.001   0.130   0.060  -0.090   6.700
  0.007   0.005   0.004   0.076   0.092   0.053  -0.066  -0.113   0.068  -0.079  -0.044   0.045   0.078  -0.049   0.054   0.032
 -0.002  -0.001  -0.001  -0.001  -0.001  -0.001   0.002   0.004  -0.000   0.003   0.000  -0.002  -0.003   0.001  -0.002  -0.000


------------------------ aborting loop because EDIFF is reached ----------------------------------------


    CHARGE:  cpu time    0.02: real time    0.02
    FORLOC:  cpu time    0.00: real time    0.00
    FORNL :  cpu time    0.09: real time    0.09
    STRESS:  cpu time    0.72: real time    0.72
    FORCOR:  cpu time    0.00: real time    0.00
    FORHAR:  cpu time    0.00: real time    0.00
    MIXING:  cpu time    0.00: real time    0.00
    OFIELD:  cpu time    0.00: real time    0.00

  FORCE on cell =-STRESS in cart. coord.  units (eV):
  Direction    XX          YY          ZZ          XY          YZ          ZX
  --------------------------------------------------------------------------------------
  Alpha Z   166.69950   166.69950   166.69950
  Ewald    -755.58402  -756.54561  -758.10574    -2.56116    -3.58642    -2.87453
  Hartree   231.92188   230.38875   228.63477    -1.23023    -1.77066    -1.38939
  E(xc)    -170.33948  -170.33997  -170.34086    -0.00466    -0.00743    -0.00545
  Local     -39.91010   -37.41541   -34.06910     3.78995     5.33681     4.25552
  n-local   -88.12276   -88.12962   -88.14444    -0.03331    -0.02296    -0.03064
  augment   132.84483   132.86282   132.87297    -0.01517    -0.02254    -0.01735
  Kinetic   521.43556   521.72083   521.94309     0.16600     0.33334     0.20965
  Fock        0.00000     0.00000     0.00000     0.00000     0.00000     0.00000
  -------------------------------------------------------------------------------------
  Total      -1.05459    -0.75871    -0.50981     0.11141     0.26014     0.14781
  in kB     -28.87766   -20.77563   -13.96002     3.05062     7.12329     4.04742
  external pressure =      -21.20 kB  Pullay stress =        0.00 kB


 VOLUME and BASIS-vectors are now :
 -----------------------------------------------------------------------------
  energy-cutoff  :      400.00
  volume of cell :       58.51
      direct lattice vectors                 reciprocal lattice vectors
     3.882200000  0.000000000  0.000000000     0.257585905  0.000000000  0.000000000
     0.000000000  3.882200000  0.000000000     0.000000000  0.257585905  0.000000000
     0.000000000  0.000000000  3.882200000     0.000000000  0.000000000  0.257585905

  length of vectors
     3.882200000  3.882200000  3.882200000     0.257585905  0.257585905  0.257585905


 FORCES acting on ions
    electron-ion (+dipol)            ewald-force                    non-local-force                 convergence-correction
 -----------------------------------------------------------------------------------------------
   0.658E+01 0.822E+01 0.918E+01   -.658E+01 -.821E+01 -.921E+01   -.110E-02 -.240E-02 0.253E-01   -.261E-02 -.788E-02 0.224E-02
   0.178E+02 0.295E+02 0.374E+02   -.175E+02 -.291E+02 -.368E+02   -.296E+00 -.475E+00 -.598E+00   -.297E-02 -.310E-02 0.328E-02
   -.200E+02 -.294E+01 -.414E+01   0.226E+02 0.327E+01 0.459E+01   -.236E+01 -.516E+00 -.697E+00   0.732E-02 -.608E-02 0.468E-02
   -.750E+00 -.279E+02 -.359E+01   0.857E+00 0.316E+02 0.399E+01   -.228E+00 -.333E+01 -.662E+00   -.223E-02 0.197E-01 0.430E-02
   -.496E+00 -.209E+01 -.330E+02   0.577E+00 0.235E+01 0.375E+02   -.212E+00 -.463E+00 -.396E+01   -.157E-02 -.539E-02 -.140E-01
 -----------------------------------------------------------------------------------------------
   0.310E+01 0.479E+01 0.589E+01   0.122E-14 -.533E-14 0.000E+00   -.310E+01 -.479E+01 -.589E+01   -.205E-02 -.278E-02 0.490E-03
 
 
 POSITION                                       TOTAL-FORCE (eV/Angst)
 -----------------------------------------------------------------------------------
      0.05543      0.07935      0.09452         0.000277      0.006953      0.000189
      2.03530      2.09417      2.13396         0.004270     -0.009237     -0.010586
      1.94110      0.00000      0.00000         0.250731     -0.185973     -0.241350
      0.00000      1.94110      0.00000        -0.123417      0.401416     -0.258185
      0.00000      0.00000      1.94110        -0.131861     -0.213158      0.509932
 -----------------------------------------------------------------------------------
    total drift:                               -0.001594     -0.001167     -0.002434


--------------------------------------------------------------------------------------------------------



  FREE ENERGIE OF THE ION-ELECTRON SYSTEM (eV)
  ---------------------------------------------------
  free  energy   TOTEN  =       -40.08426986 eV

  energy  without entropy=      -40.09100284  energy(sigma->0) =      -40.08651418
 
 d Force = 0.7574407E-03[ 0.621E-04, 0.145E-02]  d Energy = 0.7483985E-03 0.904E-05
 d Force =-0.5533437E-01[-0.849E-01,-0.258E-01]  d Ewald  =-0.5530970E-01-0.247E-04


--------------------------------------------------------------------------------------------------------


    POTLOK:  cpu time    0.01: real time    0.01


--------------------------------------------------------------------------------------------------------


 stress matrix after NEB project (eV)
     -1.05459      0.11141      0.14781
      0.11141     -0.75871      0.26014
      0.14781      0.26014     -0.50981
  FORCES: max atom, RMS     0.014684    0.007267
  FORCE total and by dimension    0.016250    0.010586
  Stress total and by dimension    1.466827    1.054593


--------------------------------------------------------------------------------------------------------


  
 reached required accuracy - stopping structural energy minimisation
 writing wavefunctions
     LOOP+:  cpu time    3.67: real time    3.67
    4ORBIT:  cpu time    0.00: real time    0.00

 total amount of memory used by VASP on root node    61338. kBytes
========================================================================

   base      :      30000. kBytes
   nonl-proj :      29425. kBytes
   fftplans  :        145. kBytes
   grid      :        538. kBytes
   one-center:         77. kBytes
   wavefun   :       1153. kBytes
 
  
  
 General timing and accounting informations for this job:
 ========================================================
  
                  Total CPU time used (sec):       61.323
                            User time (sec):       60.980
                          System time (sec):        0.342
                         Elapsed time (sec):       61.572
  
                   Maximum memory used (kb):       90236.
                   Average memory used (kb):           0.
  
                          Minor page faults:        39269
                          Major page faults:            0
                 Voluntary context switches:          393
